40
pbc="T T T" Lattice=" 12.5756623488606110   0.0000000000000000   0.0000000000000000   0.0000000000000000  12.5756623488606110   0.0000000000000000   0.0000000000000000   0.0000000000000000  12.5756623488606110" energy=-28880.2597722246136982 stress=" -0.0003351275743235   0.0003351275743235   0.0003902170385958   0.0003351275743235   0.0014745613270233  -0.0001230331368749   0.0003902170385958  -0.0001230331368749   0.0005977206873550" Properties=species:S:1:pos:R:3:forces:R:3
Cs     3.2105169730892129   3.1080205103554146   3.0260593214994294       0.0653597565322553   0.0773390404142219   0.0428019257744381
Pb    -0.1632885364645311   0.0858142838354881  -0.0541036830018617      -0.2785080658430494  -0.4654421785803188  -0.4363794568065814
I     3.0112255969502186  -0.2487689098306294  -0.2785623206145041      -0.2396900644279664   0.2029384586292846   0.1648241681513783
I    -0.3407481079079197   0.4155925934215139   2.9684579388123149       0.3514250659180298  -0.2030083926354636   0.3697387766758551
I    -0.0051306517368380   3.0775811481643887  -0.4578461851258206       0.0256428974495179   0.4480828613185842   0.0594806720275110
Cs     3.1231564919190897   3.1737029517852955   9.6049472478447822      -0.0347430600035685  -0.0639163392135448  -0.0564547407086824
Pb    -0.1761211544401395   0.3363768218459590   6.1125833750941139      -0.0570831183230266  -0.2567241371389050   0.4619675897586135
I     2.8846923144973768  -0.1070834839026635   5.8392945335863820       0.1983402977230112   0.0024181225298312  -0.0488758998993432
I    -0.0203382125073017  -0.0738267378244310   9.4095864347814775      -0.0186808642902654  -0.0666589349632215  -0.3813809889324513
I     0.0419104274030968   3.3969797081676241   6.7722185081588098       0.0995901385640552  -0.1887642239724994  -0.0002933628715085
Cs     3.4582234897889550   9.5791386814322603   3.0026323950094507       0.0270426060143665  -0.1156651897932000  -0.0280322236238636
Pb     0.1384326394905957   6.3710390183887204   0.3548710223162714      -0.1786618454034268   0.1181200790983386  -0.6588762972374884
I     3.3105479789054586   6.1879924859687687   0.5117591289006009      -0.0456859321983740  -0.1085792294612332  -0.4062103893395038
I     0.7050580385804439   6.3676339710912186   3.2407959986682013      -0.0505229485889869  -0.0775383009097689   0.5699811765228100
I     0.6401436147861893   9.4606530697283233  -0.0260846843112585      -0.1721333002383578  -0.1906712111924630   0.2247290722016667
Cs     2.8439537388001019   9.1853609795174620   9.3370040455123977       0.1124230286979133   0.2228899621053475   0.0058456601635558
Pb    -0.0549669299543565   6.5862734753550622   6.3850039790961448       0.1199931277564800   0.0232273460228550   0.0356588869521340
I     3.1788145498503853   6.2452421316087774   6.5201287127119238       0.3010211594057374   0.0379757080171323   0.1650905344396192
I    -0.0288751430352980   6.9783851250245972   9.5544180423569856       0.1546287156476115  -0.4102879018541868  -0.1809521841057911
I    -0.4588739953326707   9.6765148308498539   5.7708626592684169       0.1200216670016487  -0.0595470064892544   0.0853030324781796
Cs     9.6567347391935012   2.6249082323781345   3.4018951229014514      -0.5429807366004045   0.4467386885821720   0.0448973748566417
Pb     5.9579993252260453  -0.0974754381740402  -0.2344314998366836       0.7563280492964287   0.0486121047142707   0.1767592290588493
I     9.2565674306110370  -0.6197955543952735  -0.1007812688221468       0.3984145474227562   0.3247706964820838  -0.1054252572046208
I     6.2414556573267959   0.0880211439485822   3.0286282155366537       0.0103435480462636   0.0862620539599733  -0.1005800132838692
I     6.6926995895450982   3.1613638237956985  -0.0965752409115871      -0.1187145181508606  -0.5231773286668384   0.0168209282582825
Cs     9.3677032792627948   2.8738153219361511   9.6812094393084109       0.0416199896479486  -0.0374807706572253  -0.0585453046948660
Pb     6.1097034388680003   0.0268063427471372   6.0713817598693520       0.0886331253018238  -0.4696320483034585   0.3038102921227612
I     9.2401213492149701  -0.2089628776368525   6.4959698180666292       0.0276298459780171   0.3073249901538928  -0.0851706206650096
I     5.7420558498841840  -0.1124772371054345   9.3277393022686308       0.0101442875507167  -0.0113511633779392  -0.2516503221464872
I     6.2579921865163186   3.0922585532534415   6.5810600021668151      -0.0266685105033718  -0.2545572113886214   0.0219597921608595
Cs     9.2995597870622646   9.8194875040245577   3.0934692860859054      -0.0294710129568711  -0.1093017094515390   0.0250176051589757
Pb     6.3698398168055412   6.2238100504102203   0.0924510647192928       0.1782923778781352   0.1281234701954298   0.1902138119388139
I     9.6137427921117311   6.4647207552299335   0.1671152001626373       0.0484228715210803   0.0168857200581249   0.1466919772772384
I     6.1767606539428641   6.1067530462589783   3.1456721982713001       0.0561179261936288  -0.0902945721692102   0.6529915563057738
I     6.6049441197180965   9.3596359207869977   0.2481485283695098      -0.3358107563766529   0.1453442049963904  -0.0340732876282138
Cs     9.6852296251541663   8.9914101067793712   9.4866063097345030      -0.2690723743255295   0.3421454403628286   0.0328131899654065
Pb     6.3290580670905001   6.0886053362065864   6.4885378819066917       0.1995062930098569   0.6740992848766428  -0.2798427254977389
I     9.6801434338862116   5.8308964627878774   5.7603581236260268      -0.5869512287648568   0.0678701816658302   0.0136255612406597
I     7.1396034376183550   6.1673923867152007   9.6750561674817739      -0.1518033303759140   0.0065812527800201  -0.7734526248388932
I     6.7742330623686797   9.3556569645309118   5.9888912736354722      -0.2537599122961167  -0.0251518167443634   0.0751726288845720
40
pbc="T T T" Lattice=" 12.5756623488606110   0.0000000000000000   0.0000000000000000   0.0000000000000000  12.5756623488606110   0.0000000000000000   0.0000000000000000   0.0000000000000000  12.5756623488606110" energy=-28880.7029810759122483 stress="  0.0003690994106248  -0.0010338456128445  -0.0004801964969074  -0.0010338456128445   0.0006078204224716   0.0003158462618282  -0.0004801964969074   0.0003158462618282   0.0022696859280210" Properties=species:S:1:pos:R:3:forces:R:3
Cs     3.0717584327317664   3.0304598441900379   2.8772531600554649       0.3747907372913419   0.3653650730761785  -0.0750792978395609
Pb    -0.1497126800446677  -0.0437372506571038  -0.0256601315161366       0.0690114943622599   0.2105815770178324   0.3701110724146319
I     3.0603335773098901   0.0104466988509232  -0.4007720235978335      -0.1460682276485972   0.0551774166546471  -0.0838896970665387
I     0.5457348005586208   0.7799917810176561   3.2832253656338310      -0.4924536742463482  -0.5603256556843963   0.0475990900659417
I    -0.1317807897806879   3.0533415948324092  -0.2235929400801571       0.0776169766667203   0.2723723852421040  -0.0284382008141457
Cs     3.1738283699549608   3.2016826557740941   9.4711036032302616      -0.0225771140315798  -0.0387346976724286  -0.0702787911139386
Pb    -0.0646758889257078  -0.2046807862139759   6.3785951551880586       0.1939246851416905   0.4888348465368985  -0.2856909567644630
I     3.1807305325945427  -0.2053934837589693   7.1137726009961328      -0.4392770900773094  -0.0333554356236111  -0.0106243125122472
I    -0.6908798777006864  -0.2990772417918293   9.4938292075437563       0.4743423093078719   0.7332721958549026   0.0395088568364181
I    -0.0764018805383870   2.9320796385443577   6.9498084678368635       0.0187790804312963   0.1727655345074545  -0.0365829414308382
Cs     2.9044863201350783   9.3108850758362536   2.7686801627779456       0.5430861518303067   0.0065344587023562   0.4207918867381554
Pb     0.1124680871665038   6.2561837188451710   0.0539529884435177       0.0867256238612265  -0.0786937546736244  -0.1094194659766493
I     3.2430408841524718   6.2456037219109826  -0.3222895942580266       0.2471740315303935  -0.0340162091378765   0.0547500993080677
I    -0.0832913498240466   5.9859846221290436   3.1837849133511793       0.0061549638747081  -0.0915482420740966  -0.0676781202591547
I     0.2742402346333089   9.4746045489303352   0.6285660463160950      -0.5451065246999945  -0.1992358129565467  -0.3928010578753022
Cs     3.5588009492135773   8.8592755879273284   9.4174669938731110      -0.1088376253296521   0.2103494064017306  -0.0765240007098556
Pb     0.0066473372518058   6.1927923289456794   6.2916372371233136       0.0881739262759568  -0.2825894350124849   0.2275840251598003
I     3.0846559900654329   6.0841395801482179   6.0709677629897563       0.3851890498350913   0.0451151472950007   0.0833862750661762
I    -0.0961073950621532   6.4197351738239981   9.4983019369674953       0.1968395448036465   0.1420169403862314  -0.0901989271313476
I     0.0731991635198635   9.2851086579489923   5.8123423264161316      -0.0397999057150751   0.0707436465667759  -0.0252253502949782
Cs     9.8524106294748677   3.0808532880180342   3.3020227645226186       0.0449732224001079  -0.0349052966134912  -0.0150322117840629
Pb     6.1075830614623916   0.1495507170833855  -0.0737732028494708       0.1922411267870563  -0.1512556854010559   0.1614272266453571
I     9.3569842758260489   0.1446600966241306   0.6841511145320019       0.0352526526515350  -0.1392380920818810  -0.0124572519609624
I     5.5255402794969806  -0.0444729017249632   3.0760332609673737      -0.0169533400714524   0.0472674177572248  -0.0033331781474462
I     6.4910755538299050   3.1947447269192533  -0.0120715721372835      -0.0512672829562236   0.3309341449972475  -0.0174400499012207
Cs     8.9716263631484026   2.8624032220835920   9.3515684707259066       0.2291464845552053   0.0959687397514372   0.0258760965068870
Pb     6.1619622276037109   0.0021366376073884   6.2657516526990316       0.0133373405754879   0.0870770936643396  -0.1829517310398153
I     9.3208200843540503   0.2849871835755501   5.9430050036132220       0.2745236272630607  -0.0945829151436977  -0.0378422677626950
I     6.5337614536327990   0.0080161976788967   9.3405582494846282       0.1124358842137550  -0.0972450353642051   0.2645269210342072
I     6.2855891894774194   3.2552275882984385   6.8189075836468671      -0.1156777881987249  -0.1396222148952321  -0.2013472028783941
Cs     9.3923731343894268   9.3106148778819513   3.0166637838533950      -0.0515135946397514  -0.0013583138038382   0.0416171614344634
Pb     6.4363073833401945   6.4595930939609998  -0.0596175228592155      -0.0156310217119711  -0.0872218467727176   0.0514752852025430
I     9.6839569563632519   6.3454572864123060  -0.1924320205126021      -0.6057861021349061   0.1183995580127380   0.1010854921667664
I     6.0360086288749040   6.7114629633705976   3.0422186195891383       0.0914744514131650  -0.0856388185519658  -0.1956210990121664
I     6.3100118129859988   9.5811394212429608  -0.2032798769782594       0.0229887476488323  -0.2162842838452280   0.0179216175246523
Cs    10.1184740288701285   9.5484800537216685   9.5624038589363334      -0.7171048420220141  -0.9820999609431774  -0.0140981300030021
Pb     6.3503094721594167   6.3722733968028153   6.2425526264396618      -0.0475762072477434  -0.1573196322236045  -0.1992890347921316
I     9.5359922531832328   6.3438197726946886   6.5388611271951342      -0.4030890700931295  -0.0303235907674952  -0.1254297254059517
I     6.3986659028248027   6.5790370910991003   9.2630810856861849       0.0591682829925567  -0.0695300858713156   0.4041720187476376
I     6.5891225378823819   9.4775053981360156   6.0334628908248344      -0.0186302135578489   0.1523489184682374   0.0454396205148462
40
pbc="T T T" Lattice=" 12.5756623488606110   0.0000000000000000   0.0000000000000000   0.0000000000000000  12.5756623488606110   0.0000000000000000   0.0000000000000000   0.0000000000000000  12.5756623488606110" energy=-28881.0096317633506260 stress="  0.0013946816038284  -0.0001248694523507   0.0001937312826911  -0.0001248694523507   0.0024404632672653   0.0002745291636239   0.0001937312826911   0.0002745291636239   0.0004205162439456" Properties=species:S:1:pos:R:3:forces:R:3
Cs     3.0660196136567532   3.2786025832922170   3.4251172656181654      -0.0256192433003691   0.0357838425661157  -0.0586167813629461
Pb    -0.1317042377253843   0.1805980697976812  -0.0848281260718071       0.3084804439177484  -0.1711714505430788   0.3629040131234359
I     2.9952386534703765  -0.4182244931720991   0.6779550341086376       0.0895911183423502   0.0274346992475395  -0.2160960790933050
I    -0.3199379532346684  -0.1793117339862427   3.1282499191519872      -0.0661341728065617   0.0647694312448027   0.1349824021176315
I     0.7341349119673541   3.2612772069912128   0.2789975120701067      -0.1757667832358671  -0.0814296655550634  -0.0838634718142216
Cs     3.0963407102487248   3.1795247074990560   9.6195887557630471      -0.0198059790367344   0.0539052348069486  -0.0418483036092979
Pb    -0.0283600300639284   0.0140463859360427   6.3151186382147255       0.3266051785927001  -0.6570397582443376  -0.1216316918056681
I     3.2061883648327858  -0.5839471863092198   6.4539343595926528      -0.2067292931406967   0.1314337655246777  -0.1683393804031436
I     0.3758151826111424   0.0916389812075753   9.4974036060540996       0.0555286293474434   0.0889267452836491  -0.1965868053621979
I     0.1793195344030236   2.9803621974376076   6.3469305122909310       0.0214738536620417   0.1535246839471229  -0.0375093099023940
Cs     3.0892686057526082   9.3034761064581168   3.1782000448682477      -0.0070283676209958  -0.0573186313732473   0.1681043815735566
Pb     0.1151527532486654   6.5019904405534792  -0.0827449728392695      -0.7582808021527889  -0.1337459586039730   0.4624301312185992
I     3.0248356241447563   6.7174977880224942  -0.1910469780328174       0.8616077820617211   0.1908679005848416  -0.0597694069133165
I     0.5375586988280876   6.3859816671797054   3.1357606426361335      -0.1157963160547857  -0.0231715530841019   0.0531770983896724
I    -0.7910142477002360   9.5489885584502865  -0.4168804238482906       0.1090877936679324   0.1283777522987794   0.0734296780467489
Cs     3.0169155495294100   9.5938155080308292   9.6732618416589808      -0.0016421635936238   0.0224714416913607  -0.0807799477844219
Pb     0.0295843413251005   6.1543759379798635   6.3988635891759866       0.1664845865774974   0.2583429036936968  -0.3888032495588380
I     3.1109673044306860   6.3247621084762038   6.4281735901675008       0.3724152950741053  -0.0393741310303967   0.0430307539564211
I     0.0098696849649658   6.0936481523874058   9.4701699008861961      -0.0519380837728456  -0.1693752778696710  -0.0541734008674073
I    -0.3052753136299424   9.1739525124443126   6.5139043979550335       0.0567560740000127   0.4619133394817612   0.0146298341382164
Cs     9.5464310008062476   3.2023446926805819   2.7466357408519335       0.0009037427636743   0.0569833595200947   0.0179951510752670
Pb     6.3190687017867653   0.0378467085373755   0.1102227275294361      -0.5597114191374780  -0.2457087598347520  -0.4189291224926873
I     9.2776812183240445   0.6172891099170785  -0.3122260385113620       0.3545803237262263   0.1099393430372892  -0.0439910609897990
I     6.7376007953717902   0.2678554550841064   3.0300633495233682       0.0861604953848236  -0.0717301788524709   0.3326683540842981
I     5.8068946799865291   3.1444030214039782   0.0188860688726358      -0.0779831017578931   0.0905655664431541  -0.0373815260749271
Cs     9.4415026378647333   3.1231272371558396   9.3148633537784775      -0.0089464105845834   0.1005489029355322  -0.0504797540557587
Pb     6.3485546526259125  -0.1207532362017698   6.2966837209415960      -0.2970593465336301  -0.0376049549402565  -0.1806629349993520
I     9.4850540318348209  -0.0637135675890947   6.5757980454023368      -0.0987295903336092   0.0626467284690146   0.0553967317549072
I     6.1948970302805098  -0.2120932135372291   9.2832967646287052      -0.0202806046816115   0.1132144142531308   0.3982029456320011
I     5.9525463335664144   3.0582988020469011   5.9063175046255143       0.0755086720686750  -0.1733841419297590   0.1722415436817452
Cs     9.3274523053059646   9.9172382829973245   2.9813533190672756       0.0252739441448599  -0.1417271770591586  -0.0076516030290034
Pb     6.2565789988405189   6.2367583355921079   0.0358577469227797       0.2730557844642509   0.1931271289388690  -0.1619771856130667
I     9.4415653938989266   6.1917655851325479   0.1611610043550415      -0.2046963218654840  -0.2098662961163980   0.0309923347015825
I     6.2807029498928264   6.2351447866756429   3.1687647462167967      -0.0702731346869682   0.0477950081273698  -0.1617468147691827
I     6.7822528113753515   9.4843316347720510  -0.3288511653771193      -0.1196794531699416  -0.0445775296224992   0.2354837396445492
Cs     8.9682291554360738   9.4783092907970001   9.2029283869720491       0.1064781239520593  -0.0774552542774312  -0.0918698870804570
Pb     6.3935702008302435   6.1008015408834479   6.2078166583757204      -0.1399654571682066   0.2263169855184384   0.3318273462379315
I     9.5368202128188031   6.3011414627970330   6.1292468033483756      -0.4491820079230530  -0.1904040735732717  -0.0226272505433626
I     6.5124952227924222   6.2101667758474450   9.4892006960354642       0.0094765720578967  -0.0889012913622825  -0.1530917101735732
I     6.1315893806920636   9.3128057580106827   6.1792711068672022       0.1757798958620256  -0.0049030937420395  -0.0490695039679198
40
pbc="T T T" Lattice=" 12.5756623488606110   0.0000000000000000   0.0000000000000000   0.0000000000000000  12.5756623488606110   0.0000000000000000   0.0000000000000000   0.0000000000000000  12.5756623488606110" energy=-28880.6399595058755949 stress=" -0.0007152448778027   0.0003525725713431   0.0002120944374486   0.0003525725713431   0.0008254238063474   0.0000679436726026   0.0002120944374486   0.0000679436726026   0.0012753210979050" Properties=species:S:1:pos:R:3:forces:R:3
Cs     3.5257891834478676   3.0294558187662712   3.4833195115377498       0.0885575348686743   0.0903411091365573  -0.0317256133251953
Pb    -0.0435676900768641   0.0386412720784714  -0.2132098731513889       0.0456154839715613   0.0184371237099060   0.0849171098926105
I     3.2849521974138587   0.1084488611875135  -0.1931923673578251      -0.6303324240831237  -0.1122821322442878  -0.0128930539479974
I    -0.4943141761284471   0.1151245432913133   3.0541854459241282       0.4589491146389730  -0.3244647352050504  -0.2903947900109555
I     0.3533882598067949   3.1968626502755635  -0.3718093459028390      -0.0321855836820128  -0.2597685804005457  -0.0127115340643121
Cs     3.2339034793624934   2.9227280738983041   9.6779185726868029      -0.0234381764826595   0.0543065840115277  -0.1181542747704776
Pb    -0.2303139382511475  -0.1373232263929092   6.0391397579797070       0.8243406700777854   0.0516760883599909   0.4896228896579972
I     3.0515864669862212   0.0883465804332045   5.9829888988643329       0.0720333119160192   0.0294805260385939   0.0665841158610226
I    -0.1644834874347297  -0.5014297928855874   9.3916894618992863       0.0453956546506675   0.0132776909819823  -0.3450194194844078
I    -0.1391669428306874   3.0116236500439775   6.8760954581368416      -0.0928016548686662   0.0037756650027189  -0.1166059564424985
Cs     2.9305099610692351   9.2683426232358617   2.8538069450940475       0.0202942315284037   0.0454751017385695   0.1072774799270986
Pb     0.0293110119322196   6.2656469791789080  -0.0917017368842390      -0.4056465464146851   0.0155749716629011  -0.1055674392098304
I     3.2116875225872437   6.2618040850352994   0.3122707669691586      -0.3358017575155637   0.0463533905808771   0.0076960831138158
I    -0.1386821295837796   5.9031946905966945   3.0245958304452749      -0.0081295711079993  -0.0291622234663525   0.1921323691230351
I     0.0826890932559950   9.4177124496059967  -0.1546356454770525       0.0627290037704018   0.0788475066430916   0.2036910205266600
Cs     2.9305771276765125   9.4473926516741855   9.5245685107975415       0.0065437146737623  -0.0064614393723751  -0.0795545600143873
Pb     0.0547623748594407   6.0994617343279671   6.1840438949977088       0.2541926289593496   0.0803397749220008   0.1233471318395899
I     3.2652976753712659   6.1497902069471095   6.1132369169588037      -0.3286268370139721  -0.0457275840697012  -0.0648812742326258
I     0.4330631626759419   6.4138905514744122   9.3484416831833279      -0.0100460714096858   0.0212167433452069  -0.0677305707637889
I     0.0832212243911278   9.3135152208603191   5.9176248901925161       0.0692130688506584  -0.0042914282982895  -0.0677146299241452
Cs     9.7625862912288817   2.6236531565434698   3.3560721258648245      -0.4396907805770966   0.4766462748570285  -0.0865150505117388
Pb     6.2226569861930923   0.2514922101000587  -0.1139839731386370       0.5823106446563056  -0.3005331640243850   0.2155906002104078
I     9.5061467185418476   0.1681857966142079  -0.0934794390884690      -0.1017521792183190   0.0247183287501800  -0.0577986563347778
I     6.0993988930323999  -0.1782055644741188   3.0067045542912778       0.0132941460422597   0.1907609426930384   0.2929820911292640
I     6.4629411668483048   3.1952305823369529   0.3185343886921654      -0.0877262972143475   0.1843339561031191  -0.1226408497992447
Cs     9.1914777909996097   3.4232516670886444   9.2689726507284274       0.0540361039582175   0.0184638631828568   0.1388244015820938
Pb     6.1900956500203375   0.0501026494394556   6.2163249285033944      -0.1703715803474058  -0.0085774572799255  -0.2149244273794889
I     9.4194858503656551  -0.2163341487748121   6.0515311993637226      -0.7404949388754255  -0.0521928800968289   0.1113480504632270
I     6.2604797733723823  -0.1076403520494011   9.3260717164609854      -0.0012205026740148   0.0151682231416685   0.0620728582418394
I     6.3318126427649979   3.1934509380648013   6.6179590738396952       0.0307303392887279  -0.0814754311914600   0.0824285391359666
Cs     9.5708548425277442   9.2208341373288913   3.4202882109573385      -0.0323897292735796   0.0466832631173761  -0.1512613418280263
Pb     6.1735715443282420   6.5462689894786905   0.3582710797819854       0.8240717326863763  -0.2545911499504435  -0.0630516772180294
I     9.4130681371257019   6.0508433213554298  -0.1769319935835585       0.2339156238221738   0.0379597671774885  -0.0345008620851101
I     6.7045987647307248   5.7496297899209994   3.5027311571397286      -0.1360254986730302   0.1108975931881325  -0.5950926269474304
I     6.7069156702505808   9.4940713659263043   0.6261841562365197      -0.0830666869423505   0.0427155367079816  -0.0728504085029201
Cs     9.0758416079554749   9.5829486232578400   9.3956855302229787       0.1477345596120035   0.1131110559057632   0.0480415769212143
Pb     6.4796670823724263   6.4637026355481089   6.5341633970884114      -0.6452489362246109  -0.2764370422409452  -0.0986887097932324
I     9.4115465733357038   6.7120033529626610   6.1656798575993097       0.6953239986416716  -0.0614154271616928   0.2609343185770747
I     6.4839891244502779   7.0271835962306017   9.5901584295190752      -0.2165665909731126  -0.2437943164156002   0.4657717940065010
I     5.9590821392877222   9.4658502224299301   6.4367030030834549      -0.0077189659320141   0.2506133962386925  -0.1429849607291144
40
pbc="T T T" Lattice=" 12.5756623488606110   0.0000000000000000   0.0000000000000000   0.0000000000000000  12.5756623488606110   0.0000000000000000   0.0000000000000000   0.0000000000000000  12.5756623488606110" energy=-28880.2597722246136982 stress=" -0.0003351275743235   0.0003351275743235   0.0003902170385958   0.0003351275743235   0.0014745613270233  -0.0001230331368749   0.0003902170385958  -0.0001230331368749   0.0005977206873550" Properties=species:S:1:pos:R:3:forces:R:3
Cs     3.2105169730892129   3.1080205103554146   3.0260593214994294       0.0653597565322553   0.0773390404142219   0.0428019257744381
Pb    -0.1632885364645311   0.0858142838354881  -0.0541036830018617      -0.2785080658430494  -0.4654421785803188  -0.4363794568065814
I     3.0112255969502186  -0.2487689098306294  -0.2785623206145041      -0.2396900644279664   0.2029384586292846   0.1648241681513783
I    -0.3407481079079197   0.4155925934215139   2.9684579388123149       0.3514250659180298  -0.2030083926354636   0.3697387766758551
I    -0.0051306517368380   3.0775811481643887  -0.4578461851258206       0.0256428974495179   0.4480828613185842   0.0594806720275110
Cs     3.1231564919190897   3.1737029517852955   9.6049472478447822      -0.0347430600035685  -0.0639163392135448  -0.0564547407086824
Pb    -0.1761211544401395   0.3363768218459590   6.1125833750941139      -0.0570831183230266  -0.2567241371389050   0.4619675897586135
I     2.8846923144973768  -0.1070834839026635   5.8392945335863820       0.1983402977230112   0.0024181225298312  -0.0488758998993432
I    -0.0203382125073017  -0.0738267378244310   9.4095864347814775      -0.0186808642902654  -0.0666589349632215  -0.3813809889324513
I     0.0419104274030968   3.3969797081676241   6.7722185081588098       0.0995901385640552  -0.1887642239724994  -0.0002933628715085
Cs     3.4582234897889550   9.5791386814322603   3.0026323950094507       0.0270426060143665  -0.1156651897932000  -0.0280322236238636
Pb     0.1384326394905957   6.3710390183887204   0.3548710223162714      -0.1786618454034268   0.1181200790983386  -0.6588762972374884
I     3.3105479789054586   6.1879924859687687   0.5117591289006009      -0.0456859321983740  -0.1085792294612332  -0.4062103893395038
I     0.7050580385804439   6.3676339710912186   3.2407959986682013      -0.0505229485889869  -0.0775383009097689   0.5699811765228100
I     0.6401436147861893   9.4606530697283233  -0.0260846843112585      -0.1721333002383578  -0.1906712111924630   0.2247290722016667
Cs     2.8439537388001019   9.1853609795174620   9.3370040455123977       0.1124230286979133   0.2228899621053475   0.0058456601635558
Pb    -0.0549669299543565   6.5862734753550622   6.3850039790961448       0.1199931277564800   0.0232273460228550   0.0356588869521340
I     3.1788145498503853   6.2452421316087774   6.5201287127119238       0.3010211594057374   0.0379757080171323   0.1650905344396192
I    -0.0288751430352980   6.9783851250245972   9.5544180423569856       0.1546287156476115  -0.4102879018541868  -0.1809521841057911
I    -0.4588739953326707   9.6765148308498539   5.7708626592684169       0.1200216670016487  -0.0595470064892544   0.0853030324781796
Cs     9.6567347391935012   2.6249082323781345   3.4018951229014514      -0.5429807366004045   0.4467386885821720   0.0448973748566417
Pb     5.9579993252260453  -0.0974754381740402  -0.2344314998366836       0.7563280492964287   0.0486121047142707   0.1767592290588493
I     9.2565674306110370  -0.6197955543952735  -0.1007812688221468       0.3984145474227562   0.3247706964820838  -0.1054252572046208
I     6.2414556573267959   0.0880211439485822   3.0286282155366537       0.0103435480462636   0.0862620539599733  -0.1005800132838692
I     6.6926995895450982   3.1613638237956985  -0.0965752409115871      -0.1187145181508606  -0.5231773286668384   0.0168209282582825
Cs     9.3677032792627948   2.8738153219361511   9.6812094393084109       0.0416199896479486  -0.0374807706572253  -0.0585453046948660
Pb     6.1097034388680003   0.0268063427471372   6.0713817598693520       0.0886331253018238  -0.4696320483034585   0.3038102921227612
I     9.2401213492149701  -0.2089628776368525   6.4959698180666292       0.0276298459780171   0.3073249901538928  -0.0851706206650096
I     5.7420558498841840  -0.1124772371054345   9.3277393022686308       0.0101442875507167  -0.0113511633779392  -0.2516503221464872
I     6.2579921865163186   3.0922585532534415   6.5810600021668151      -0.0266685105033718  -0.2545572113886214   0.0219597921608595
Cs     9.2995597870622646   9.8194875040245577   3.0934692860859054      -0.0294710129568711  -0.1093017094515390   0.0250176051589757
Pb     6.3698398168055412   6.2238100504102203   0.0924510647192928       0.1782923778781352   0.1281234701954298   0.1902138119388139
I     9.6137427921117311   6.4647207552299335   0.1671152001626373       0.0484228715210803   0.0168857200581249   0.1466919772772384
I     6.1767606539428641   6.1067530462589783   3.1456721982713001       0.0561179261936288  -0.0902945721692102   0.6529915563057738
I     6.6049441197180965   9.3596359207869977   0.2481485283695098      -0.3358107563766529   0.1453442049963904  -0.0340732876282138
Cs     9.6852296251541663   8.9914101067793712   9.4866063097345030      -0.2690723743255295   0.3421454403628286   0.0328131899654065
Pb     6.3290580670905001   6.0886053362065864   6.4885378819066917       0.1995062930098569   0.6740992848766428  -0.2798427254977389
I     9.6801434338862116   5.8308964627878774   5.7603581236260268      -0.5869512287648568   0.0678701816658302   0.0136255612406597
I     7.1396034376183550   6.1673923867152007   9.6750561674817739      -0.1518033303759140   0.0065812527800201  -0.7734526248388932
I     6.7742330623686797   9.3556569645309118   5.9888912736354722      -0.2537599122961167  -0.0251518167443634   0.0751726288845720
40
pbc="T T T" Lattice=" 12.5756623488606110   0.0000000000000000   0.0000000000000000   0.0000000000000000  12.5756623488606110   0.0000000000000000   0.0000000000000000   0.0000000000000000  12.5756623488606110" energy=-28880.2597722246136982 stress=" -0.0003351275743235   0.0003351275743235   0.0003902170385958   0.0003351275743235   0.0014745613270233  -0.0001230331368749   0.0003902170385958  -0.0001230331368749   0.0005977206873550" Properties=species:S:1:pos:R:3:forces:R:3
Cs     3.2105169730892129   3.1080205103554146   3.0260593214994294       0.0653597565322553   0.0773390404142219   0.0428019257744381