5
pbc="T T T" Lattice=" 12.5756623488606110   0.0000000000000000   0.0000000000000000   0.0000000000000000  12.5756623488606110   0.0000000000000000   0.0000000000000000   0.0000000000000000  12.5756623488606110" energy=-28880.2597722246136982 stress=" -0.0003351275743235   0.0003351275743235   0.0003902170385958   0.0003351275743235   0.0014745613270233  -0.0001230331368749   0.0003902170385958  -0.0001230331368749   0.0005977206873550" Properties=species:S:1:pos:R:3:forces:R:3
Cs     3.2105169730892129   3.1080205103554146   3.0260593214994294       0.0653597565322553   0.0773390404142219   0.0428019257744381
Pb    -0.1632885364645311   0.0858142838354881  -0.0541036830018617      -0.2785080658430494  -0.4654421785803188  -0.4363794568065814
I     3.0112255969502186  -0.2487689098306294  -0.2785623206145041      -0.2396900644279664   0.2029384586292846   0.1648241681513783
I    -0.3407481079079197   0.4155925934215139   2.9684579388123149       0.3514250659180298  -0.2030083926354636   0.3697387766758551
I    -0.0051306517368380   3.0775811481643887  -0.4578461851258206       0.0256428974495179   0.4480828613185842   0.0594806720275110
5
pbc="T T T" Lattice=" 12.5756623488606110   0.0000000000000000   0.0000000000000000   0.0000000000000000  12.5756623488606110   0.0000000000000000   0.0000000000000000   0.0000000000000000  12.5756623488606110" energy=-28880.7029810759122483 stress="  0.0003690994106248  -0.0010338456128445  -0.0004801964969074  -0.0010338456128445   0.0006078204224716   0.0003158462618282  -0.0004801964969074   0.0003158462618282   0.0022696859280210" Properties=species:S:1:pos:R:3:forces:R:3
Cs     3.0717584327317664   3.0304598441900379   2.8772531600554649       0.3747907372913419   0.3653650730761785  -0.0750792978395609
Pb    -0.1497126800446677  -0.0437372506571038  -0.0256601315161366       0.0690114943622599   0.2105815770178324   0.3701110724146319
I     3.0603335773098901   0.0104466988509232  -0.4007720235978335      -0.1460682276485972   0.0551774166546471  -0.0838896970665387
I     0.5457348005586208   0.7799917810176561   3.2832253656338310      -0.4924536742463482  -0.5603256556843963   0.0475990900659417
I    -0.1317807897806879   3.0533415948324092  -0.2235929400801571       0.0776169766667203   0.2723723852421040  -0.0284382008141457
5
pbc="T T T" Lattice=" 12.5756623488606110   0.0000000000000000   0.0000000000000000   0.0000000000000000  12.5756623488606110   0.0000000000000000   0.0000000000000000   0.0000000000000000  12.5756623488606110" energy=-28881.0096317633506260 stress="  0.0013946816038284  -0.0001248694523507   0.0001937312826911  -0.0001248694523507   0.0024404632672653   0.0002745291636239   0.0001937312826911   0.0002745291636239   0.0004205162439456" Properties=species:S:1:pos:R:3:forces:R:3
Cs     3.0660196136567532   3.2786025832922170   3.4251172656181654      -0.0256192433003691   0.0357838425661157  -0.0586167813629461
Pb    -0.1317042377253843   0.1805980697976812  -0.0848281260718071       0.3084804439177484  -0.1711714505430788   0.3629040131234359
I     2.9952386534703765  -0.4182244931720991   0.6779550341086376       0.0895911183423502   0.0274346992475395  -0.2160960790933050
I    -0.3199379532346684  -0.1793117339862427   3.1282499191519872      -0.0661341728065617   0.0647694312448027   0.1349824021176315
I     0.7341349119673541   3.2612772069912128   0.2789975120701067      -0.1757667832358671  -0.0814296655550634  -0.0838634718142216
5
pbc="T T T" Lattice=" 12.5756623488606110   0.0000000000000000   0.0000000000000000   0.0000000000000000  12.5756623488606110   0.0000000000000000   0.0000000000000000   0.0000000000000000  12.5756623488606110" energy=-28880.6399595058755949 stress=" -0.0007152448778027   0.0003525725713431   0.0002120944374486   0.0003525725713431   0.0008254238063474   0.0000679436726026   0.0002120944374486   0.0000679436726026   0.0012753210979050" Properties=species:S:1:pos:R:3:forces:R:3
Cs     3.5257891834478676   3.0294558187662712   3.4833195115377498       0.0885575348686743   0.0903411091365573  -0.0317256133251953
Pb    -0.0435676900768641   0.0386412720784714  -0.2132098731513889       0.0456154839715613   0.0184371237099060   0.0849171098926105
I     3.2849521974138587   0.1084488611875135  -0.1931923673578251      -0.6303324240831237  -0.1122821322442878  -0.0128930539479974
I    -0.4943141761284471   0.1151245432913133   3.0541854459241282       0.4589491146389730  -0.3244647352050504  -0.2903947900109555
I     0.3533882598067949   3.1968626502755635  -0.3718093459028390      -0.0321855836820128  -0.2597685804005457  -0.0127115340643121
5
pbc="T T T" Lattice=" 12.5756623488606110   0.0000000000000000   0.0000000000000000   0.0000000000000000  12.5756623488606110   0.0000000000000000   0.0000000000000000   0.0000000000000000  12.5756623488606110" energy=-28880.6137656896316912 stress="  0.0014580344877416  -0.0014635434341689   0.0005215135951116  -0.0014635434341689   0.0011926869014965   0.0004251070326350   0.0005215135951116   0.0004251070326350   0.0040646843055619" Properties=species:S:1:pos:R:3:forces:R:3
Cs     3.1372832658212020   3.2899117903770727   3.3344425071200177       0.0500434378480900  -0.0902804311017843  -0.0858337081721266
Pb     0.1193122172584777   0.1632589071204951  -0.0643863959663618      -0.1640147848739824  -0.2287582479767848   0.1116660959251517
I     3.1026094908621160   0.3648880566157047   0.0926534550894518       0.3203054616096140  -0.0481927577875132  -0.0370940767407058
I     0.0398767186131268  -0.4072304304119001   3.1919939277007772      -0.0430657209595106  -0.0540420174955047  -0.1817453694332264
I     0.1563436370197104   3.2822964427094710   0.7673254895478161      -0.0711156851952358  -0.4878714541797186  -0.0134417273641229
5
pbc="T T T" Lattice=" 12.5756623488606110   0.0000000000000000   0.0000000000000000   0.0000000000000000  12.5756623488606110   0.0000000000000000   0.0000000000000000   0.0000000000000000  12.5756623488606110" energy=-28880.4247317284098244 stress="  0.0004884599165482  -0.0004471428183439  -0.0004150072975184  -0.0004471428183439  -0.0009466206277466   0.0003342094165856  -0.0004150072975184   0.0003342094165856  -0.0002111762797107" Properties=species:S:1:pos:R:3:forces:R:3
Cs     2.9063636216686581   3.6219412743848696   3.5007872595840346       0.1256135592824886  -0.2399500029582864  -0.0624595521583589
Pb    -0.0291318732205639  -0.0704894889402246  -0.1047730055508396       0.0620561460712451  -0.2386636800431619   0.1681951415153993
I     3.2469808024759153  -0.3939797051140781  -0.1352444667838100      -0.1935637022568544   0.0917025082641975  -0.0478106918566967
I     0.1080214316753203  -0.0807607284652914   3.1093181123034488       0.0155202071654153   0.0251191637341254  -0.1727081989068004
I     0.2582496059624937   3.0597608473237430  -0.2479748374734116      -0.0377869890445755  -0.0383585452788993   0.1290819774565899
5
pbc="T T T" Lattice=" 12.5756623488606110   0.0000000000000000   0.0000000000000000   0.0000000000000000  12.5756623488606110   0.0000000000000000   0.0000000000000000   0.0000000000000000  12.5756623488606110" energy=-28880.1852104418248928 stress=" -0.0001138515594962  -0.0010595540295049  -0.0006977998807832  -0.0010595540295049  -0.0006215927885397  -0.0003332912588477  -0.0006977998807832  -0.0003332912588477   0.0014699705383340" Properties=species:S:1:pos:R:3:forces:R:3
Cs     3.1328453013287967   2.5398375930393757   2.9441183007808118       0.0867780743658608   0.1565842967174570   0.0931636661947696
Pb    -0.2855639856164567   0.0156484500034892  -0.1914318664980232       0.1703682379132869  -0.2149272555929740  -0.0952758274475674
I     3.1080114060783726   0.0537471746791569   0.1496353027139792      -0.8744180464876975  -0.1009996173209435  -0.0893684608079713
I     0.0526455318945516   0.1114516614184042   2.9497148683020646      -0.0894797895751607   0.0510685366813103   0.0106330542630196
I    -0.2223089688174795   3.0634284178640603  -0.0809062694964648       0.1689312483524973   0.3721291312914682  -0.0021278449821247
5
pbc="T T T" Lattice=" 12.5756623488606110   0.0000000000000000   0.0000000000000000   0.0000000000000000  12.5756623488606110   0.0000000000000000   0.0000000000000000   0.0000000000000000  12.5756623488606110" energy=-28880.6165001618137467 stress="  0.0003461454671780   0.0003837899344307  -0.0000945702470009   0.0003837899344307   0.0012569579431476   0.0004636696576256  -0.0000945702470009   0.0004636696576256   0.0008584774849109" Properties=species:S:1:pos:R:3:forces:R:3
Cs     2.9082625505399737   3.0444221115855332   3.3249008639286681       0.0486727827490437   0.0501377973343684  -0.0987301045542428
Pb     0.0119133652910000   0.0907545787931436  -0.0687728478644463       0.6091107956418969   0.0656055539951494   0.6473276731362202
I     3.3090916052233816  -0.5324748222974094  -0.1911679530288524      -0.0193609210782934   0.1749473726561145   0.0395785337322804
I    -0.2061886075935488   0.3323847594821210   3.1576547115128242      -0.0998289940483947  -0.0295877410407141   0.2076435774273612
I     0.8011857286345485   3.0992575646852507  -0.3072760120958113      -0.1452387897664882   0.1399531158729985   0.1771934883839833
5
pbc="T T T" Lattice=" 12.5756623488606110   0.0000000000000000   0.0000000000000000   0.0000000000000000  12.5756623488606110   0.0000000000000000   0.0000000000000000   0.0000000000000000  12.5756623488606110" energy=-28880.4167213766377245 stress="  0.0000743707767677   0.0003690994106248   0.0001395599761566   0.0003690994106248   0.0004618333421499   0.0001386418184188   0.0001395599761566   0.0001386418184188   0.0008272601218232" Properties=species:S:1:pos:R:3:forces:R:3
Cs     3.3637913748198103   3.3104228801468092   3.4190986263603231       0.0133378547961216  -0.0090160874804456  -0.0177642660107494
Pb     0.0816730237600507   0.1780467538564448   0.0273909876323440       0.1881764697882150  -0.4390343779382174  -0.4436309961825897
I     3.2633025678122722  -0.3874075121595506   0.1581657318876375      -0.2747966784195393   0.3632439129622915  -0.2582693701430820
I     0.1713118132152232   0.2911134416899508   3.0788895413969799       0.1449048034649198  -0.0856768708788573  -0.0317842344774337
I     0.2676797676843570   3.1495163318347079  -0.2341635013657171       0.0583617279286460   0.1036167432360049   0.1286749718250404
5
pbc="T T T" Lattice=" 12.5756623488606110   0.0000000000000000   0.0000000000000000   0.0000000000000000  12.5756623488606110   0.0000000000000000   0.0000000000000000   0.0000000000000000  12.5756623488606110" energy=-28880.2959768376676948 stress="  0.0000348899940392   0.0008906130057364   0.0000578439374860   0.0008906130057364  -0.0001588412886520  -0.0001248694523507   0.0000578439374860  -0.0001248694523507   0.0003746083570520" Properties=species:S:1:pos:R:3:forces:R:3
Cs     2.9240397996104925   2.9774082942834936   2.8687325480699806      -0.0077891570485100  -0.0431230565601648   0.0036501951681035
Pb    -0.0816730237600503  -0.1780467538564441  -0.0273909876323435      -0.1722932228554290   0.3383363510189211   0.4436189119976985
I     3.0245286066180319   0.3874075121595517  -0.1581657318876379      -0.1982598221938419  -0.1158433672427665   0.1695588546358910
I    -0.1713118132152234  -0.2911134416899506   3.2089416330333234      -0.0980256222861155   0.3352859942199931   0.1540517600966343
I    -0.2676797676843563   3.1383148425955958   0.2341635013657184      -0.0773999755593118  -0.0626536704475692  -0.1386313117341509