4
pbc="T T T" Lattice=" 12.5756623488606110   0.0000000000000000   0.0000000000000000   0.0000000000000000  12.5756623488606110   0.0000000000000000   0.0000000000000000   0.0000000000000000  12.5756623488606110" energy=-28880.2597722246136982 stress=" -0.0003351275743235   0.0003351275743235   0.0003902170385958   0.0003351275743235   0.0014745613270233  -0.0001230331368749   0.0003902170385958  -0.0001230331368749   0.0005977206873550" Properties=species:S:1:pos:R:3:forces:R:3
Cs     3.2105169730892129   3.1080205103554146   3.0260593214994294       0.0653597565322553   0.0773390404142219   0.0428019257744381
Pb    -0.1632885364645311   0.0858142838354881  -0.0541036830018617      -0.2785080658430494  -0.4654421785803188  -0.4363794568065814
I     3.0112255969502186  -0.2487689098306294  -0.2785623206145041      -0.2396900644279664   0.2029384586292846   0.1648241681513783
I     3.0603335773098901   0.0104466988509232  -0.4007720235978335      -0.1460682276485972   0.0551774166546471  -0.0838896970665387
4
pbc="T T T" Lattice=" 12.5756623488606110   0.0000000000000000   0.0000000000000000   0.0000000000000000  12.5756623488606110   0.0000000000000000   0.0000000000000000   0.0000000000000000  12.5756623488606110" energy=-28880.7029810759122483 stress="  0.0003690994106248  -0.0010338456128445  -0.0004801964969074  -0.0010338456128445   0.0006078204224716   0.0003158462618282  -0.0004801964969074   0.0003158462618282   0.0022696859280210" Properties=species:S:1:pos:R:3:forces:R:3
Cs     3.0717584327317664   3.0304598441900379   2.8772531600554649       0.3747907372913419   0.3653650730761785  -0.0750792978395609
Pb    -0.1497126800446677  -0.0437372506571038  -0.0256601315161366       0.0690114943622599   0.2105815770178324   0.3701110724146319
I     3.0603335773098901   0.0104466988509232  -0.4007720235978335      -0.1460682276485972   0.0551774166546471  -0.0838896970665387
I     2.9952386534703765  -0.4182244931720991   0.6779550341086376       0.0895911183423502   0.0274346992475395  -0.2160960790933050
4
pbc="T T T" Lattice=" 12.5756623488606110   0.0000000000000000   0.0000000000000000   0.0000000000000000  12.5756623488606110   0.0000000000000000   0.0000000000000000   0.0000000000000000  12.5756623488606110" energy=-28881.0096317633506260 stress="  0.0013946816038284  -0.0001248694523507   0.0001937312826911  -0.0001248694523507   0.0024404632672653   0.0002745291636239   0.0001937312826911   0.0002745291636239   0.0004205162439456" Properties=species:S:1:pos:R:3:forces:R:3
Cs     3.0660196136567532   3.2786025832922170   3.4251172656181654      -0.0256192433003691   0.0357838425661157  -0.0586167813629461
Pb    -0.1317042377253843   0.1805980697976812  -0.0848281260718071       0.3084804439177484  -0.1711714505430788   0.3629040131234359
I     2.9952386534703765  -0.4182244931720991   0.6779550341086376       0.0895911183423502   0.0274346992475395  -0.2160960790933050
I     3.0112255969502186  -0.2487689098306294  -0.2785623206145041      -0.2396900644279664   0.2029384586292846   0.1648241681513783
4
pbc="T T T" Lattice=" 12.5756623488606110   0.0000000000000000   0.0000000000000000   0.0000000000000000  12.5756623488606110   0.0000000000000000   0.0000000000000000   0.0000000000000000  12.5756623488606110" energy=-28880.6399595058755949 stress=" -0.0007152448778027   0.0003525725713431   0.0002120944374486   0.0003525725713431   0.0008254238063474   0.0000679436726026   0.0002120944374486   0.0000679436726026   0.0012753210979050" Properties=species:S:1:pos:R:3:forces:R:3
Cs     3.5257891834478676   3.0294558187662712   3.4833195115377498       0.0885575348686743   0.0903411091365573  -0.0317256133251953
Pb    -0.0435676900768641   0.0386412720784714  -0.2132098731513889       0.0456154839715613   0.0184371237099060   0.0849171098926105
I     3.2849521974138587   0.1084488611875135  -0.1931923673578251      -0.6303324240831237  -0.1122821322442878  -0.0128930539479974
I     3.0112255969502186  -0.2487689098306294  -0.2785623206145041      -0.2396900644279664   0.2029384586292846   0.1648241681513783
4
pbc="T T T" Lattice=" 12.5756623488606110   0.0000000000000000   0.0000000000000000   0.0000000000000000  12.5756623488606110   0.0000000000000000   0.0000000000000000   0.0000000000000000  12.5756623488606110" energy=-28880.2597722246136982 stress=" -0.0003351275743235   0.0003351275743235   0.0003902170385958   0.0003351275743235   0.0014745613270233  -0.0001230331368749   0.0003902170385958  -0.0001230331368749   0.0005977206873550" Properties=species:S:1:pos:R:3:forces:R:3
Cs     3.2105169730892129   3.1080205103554146   3.0260593214994294       0.0653597565322553   0.0773390404142219   0.0428019257744381
Pb    -0.1632885364645311   0.0858142838354881  -0.0541036830018617      -0.2785080658430494  -0.4654421785803188  -0.4363794568065814
I     3.0112255969502186  -0.2487689098306294  -0.2785623206145041      -0.2396900644279664   0.2029384586292846   0.1648241681513783
I     3.2849521974138587   0.1084488611875135  -0.1931923673578251      -0.6303324240831237  -0.1122821322442878  -0.0128930539479974
