2
pbc="T T T" Lattice="10.0 0.0 0.0 0.0 10.0 0.0 0.0 0.0 10.0" energy=-0.9493658814280459 Properties=species:S:1:pos:R:3:forces:R:3
He  1.0851283764510347  0.000000  0.000000   3.048351370786304  0.0  0.0
He  0.000000  0.000000  0.000000   -3.048351370786304  0.0  0.0
2
pbc="T T T" Lattice="10.0 0.0 0.0 0.0 10.0 0.0 0.0 0.0 10.0" energy=0.19833350686489215 Properties=species:S:1:pos:R:3:forces:R:3
He  0.9923203696117131  0.000000  0.000000   27.72916224950235  0.0  0.0
He  0.000000  0.000000  0.000000   -27.72916224950235  0.0  0.0
2
pbc="T T T" Lattice="10.0 0.0 0.0 0.0 10.0 0.0 0.0 0.0 10.0" energy=-0.4963870556873776 Properties=species:S:1:pos:R:3:forces:R:3
He  1.3793879233435362  0.000000  0.000000   -1.7924817726547309  0.0  0.0
He  0.000000  0.000000  0.000000   1.7924817726547309  0.0  0.0
2
pbc="T T T" Lattice="10.0 0.0 0.0 0.0 10.0 0.0 0.0 0.0 10.0" energy=-0.45619766261544975 Properties=species:S:1:pos:R:3:forces:R:3
He  1.402697502779658  0.000000  0.000000   -1.6564701338881993  0.0  0.0
He  0.000000  0.000000  0.000000   1.6564701338881993  0.0  0.0
2
pbc="T T T" Lattice="10.0 0.0 0.0 0.0 10.0 0.0 0.0 0.0 10.0" energy=-0.5899695303471175 Properties=species:S:1:pos:R:3:forces:R:3
He  1.3310331781663858  0.000000  0.000000   -2.076333635203965  0.0  0.0
He  0.000000  0.000000  0.000000   2.076333635203965  0.0  0.0
2
pbc="T T T" Lattice="10.0 0.0 0.0 0.0 10.0 0.0 0.0 0.0 10.0" energy=-0.6736789187409502 Properties=species:S:1:pos:R:3:forces:R:3
He  1.2926179044209762  0.000000  0.000000   -2.27374960812204  0.0  0.0
He  0.000000  0.000000  0.000000   2.27374960812204  0.0  0.0
2
pbc="T T T" Lattice="10.0 0.0 0.0 0.0 10.0 0.0 0.0 0.0 10.0" energy=-0.6029018988319363 Properties=species:S:1:pos:R:3:forces:R:3
He  1.3248563914703415  0.000000  0.000000   -2.110952739042948  0.0  0.0
He  0.000000  0.000000  0.000000   2.110952739042948  0.0  0.0
2
pbc="T T T" Lattice="10.0 0.0 0.0 0.0 10.0 0.0 0.0 0.0 10.0" energy=-0.9206795677764819 Properties=species:S:1:pos:R:3:forces:R:3
He  1.0769876494436192  0.000000  0.000000   4.021876373678939  0.0  0.0
He  0.000000  0.000000  0.000000   -4.021876373678939  0.0  0.0
2
pbc="T T T" Lattice="10.0 0.0 0.0 0.0 10.0 0.0 0.0 0.0 10.0" energy=1.3369709450556728 Properties=species:S:1:pos:R:3:forces:R:3
He  0.9616602658269693  0.000000  0.000000   48.23765570824896  0.0  0.0
He  0.000000  0.000000  0.000000   -48.23765570824896  0.0  0.0
2
pbc="T T T" Lattice="10.0 0.0 0.0 0.0 10.0 0.0 0.0 0.0 10.0" energy=-0.5975856241514903 Properties=species:S:1:pos:R:3:forces:R:3
He  1.3273832248263093  0.000000  0.000000   -2.096880647232376  0.0  0.0
He  0.000000  0.000000  0.000000   2.096880647232376  0.0  0.0
2
pbc="T T T" Lattice="10.0 0.0 0.0 0.0 10.0 0.0 0.0 0.0 10.0" energy=-0.6340293836848391 Properties=species:S:1:pos:R:3:forces:R:3
He  1.310379974376958  0.000000  0.000000   -2.188535614043851  0.0  0.0
He  0.000000  0.000000  0.000000   2.188535614043851  0.0  0.0
2
pbc="T T T" Lattice="10.0 0.0 0.0 0.0 10.0 0.0 0.0 0.0 10.0" energy=-0.9994933739318774 Properties=species:S:1:pos:R:3:forces:R:3
He  1.1183056566908391  0.000000  0.000000   0.24696269519926028  0.0  0.0
He  0.000000  0.000000  0.000000   -0.24696269519926028  0.0  0.0
2
pbc="T T T" Lattice="10.0 0.0 0.0 0.0 10.0 0.0 0.0 0.0 10.0" energy=-0.6099456431264779 Properties=species:S:1:pos:R:3:forces:R:3
He  1.3215340570817147  0.000000  0.000000   -2.1292433034695275  0.0  0.0
He  0.000000  0.000000  0.000000   2.1292433034695275  0.0  0.0
2
pbc="T T T" Lattice="10.0 0.0 0.0 0.0 10.0 0.0 0.0 0.0 10.0" energy=-0.9595716035816988 Properties=species:S:1:pos:R:3:forces:R:3
He  1.0887054363704887  0.000000  0.000000   2.661838845609597  0.0  0.0
He  0.000000  0.000000  0.000000   -2.661838845609597  0.0  0.0
2
pbc="T T T" Lattice="10.0 0.0 0.0 0.0 10.0 0.0 0.0 0.0 10.0" energy=-0.5312367782867229 Properties=species:S:1:pos:R:3:forces:R:3
He  1.3605331985088494  0.000000  0.000000   -1.9042501670157057  0.0  0.0
He  0.000000  0.000000  0.000000   1.9042501670157057  0.0  0.0
2
pbc="T T T" Lattice="10.0 0.0 0.0 0.0 10.0 0.0 0.0 0.0 10.0" energy=-0.6911616555245095 Properties=species:S:1:pos:R:3:forces:R:3
He  1.2849834557495643  0.000000  0.000000   -2.3056537961506005  0.0  0.0
He  0.000000  0.000000  0.000000   2.3056537961506005  0.0  0.0
2
pbc="T T T" Lattice="10.0 0.0 0.0 0.0 10.0 0.0 0.0 0.0 10.0" energy=-0.6035218972746654 Properties=species:S:1:pos:R:3:forces:R:3
He  1.3245627990804432  0.000000  0.000000   -2.112579057486048  0.0  0.0
He  0.000000  0.000000  0.000000   2.112579057486048  0.0  0.0
2
pbc="T T T" Lattice="10.0 0.0 0.0 0.0 10.0 0.0 0.0 0.0 10.0" energy=-0.9960319321112475 Properties=species:S:1:pos:R:3:forces:R:3
He  1.1347002815725893  0.000000  0.000000   -0.6242127715355457  0.0  0.0
He  0.000000  0.000000  0.000000   0.6242127715355457  0.0  0.0
2
pbc="T T T" Lattice="10.0 0.0 0.0 0.0 10.0 0.0 0.0 0.0 10.0" energy=-0.5485898841463581 Properties=species:S:1:pos:R:3:forces:R:3
He  1.35154593492751  0.000000  0.000000   -1.9574073325119905  0.0  0.0
He  0.000000  0.000000  0.000000   1.9574073325119905  0.0  0.0
2
pbc="T T T" Lattice="10.0 0.0 0.0 0.0 10.0 0.0 0.0 0.0 10.0" energy=-0.7572084589713142 Properties=species:S:1:pos:R:3:forces:R:3
He  1.2568971094598962  0.000000  0.000000   -2.3863268361031915  0.0  0.0
He  0.000000  0.000000  0.000000   2.3863268361031915  0.0  0.0
2
pbc="T T T" Lattice="10.0 0.0 0.0 0.0 10.0 0.0 0.0 0.0 10.0" energy=-0.8432258559807915 Properties=species:S:1:pos:R:3:forces:R:3
He  1.2208411971723099  0.000000  0.000000   -2.3509003911129063  0.0  0.0
He  0.000000  0.000000  0.000000   2.3509003911129063  0.0  0.0
2
pbc="T T T" Lattice="10.0 0.0 0.0 0.0 10.0 0.0 0.0 0.0 10.0" energy=-0.5610412879654665 Properties=species:S:1:pos:R:3:forces:R:3
He  1.3452444064177953  0.000000  0.000000   -1.9944112433761163  0.0  0.0
He  0.000000  0.000000  0.000000   1.9944112433761163  0.0  0.0
2
pbc="T T T" Lattice="10.0 0.0 0.0 0.0 10.0 0.0 0.0 0.0 10.0" energy=-0.9479677373139712 Properties=species:S:1:pos:R:3:forces:R:3
He  1.0846735119250939  0.000000  0.000000   3.099233908920522  0.0  0.0
He  0.000000  0.000000  0.000000   -3.099233908920522  0.0  0.0
2
pbc="T T T" Lattice="10.0 0.0 0.0 0.0 10.0 0.0 0.0 0.0 10.0" energy=-0.9876861971987936 Properties=species:S:1:pos:R:3:forces:R:3
He  1.1446834378332096  0.000000  0.000000   -1.0342119337587405  0.0  0.0
He  0.000000  0.000000  0.000000   1.0342119337587405  0.0  0.0
2
pbc="T T T" Lattice="10.0 0.0 0.0 0.0 10.0 0.0 0.0 0.0 10.0" energy=-0.6821871724122451 Properties=species:S:1:pos:R:3:forces:R:3
He  1.2888891790460608  0.000000  0.000000   -2.2897491682940996  0.0  0.0
He  0.000000  0.000000  0.000000   2.2897491682940996  0.0  0.0
2
pbc="T T T" Lattice="10.0 0.0 0.0 0.0 10.0 0.0 0.0 0.0 10.0" energy=-0.81383445872156 Properties=species:S:1:pos:R:3:forces:R:3
He  1.233235394270574  0.000000  0.000000   -2.386926389484058  0.0  0.0
He  0.000000  0.000000  0.000000   2.386926389484058  0.0  0.0
2
pbc="T T T" Lattice="10.0 0.0 0.0 0.0 10.0 0.0 0.0 0.0 10.0" energy=-0.8170364183711899 Properties=species:S:1:pos:R:3:forces:R:3
He  1.2318932460459968  0.000000  0.000000   -2.3844161193701465  0.0  0.0
He  0.000000  0.000000  0.000000   2.3844161193701465  0.0  0.0
2
pbc="T T T" Lattice="10.0 0.0 0.0 0.0 10.0 0.0 0.0 0.0 10.0" energy=0.06126816926915435 Properties=species:S:1:pos:R:3:forces:R:3
He  0.9975070057108989  0.000000  0.000000   25.160086472436227  0.0  0.0
He  0.000000  0.000000  0.000000   -25.160086472436227  0.0  0.0
2
pbc="T T T" Lattice="10.0 0.0 0.0 0.0 10.0 0.0 0.0 0.0 10.0" energy=-0.9977601259925561 Properties=species:S:1:pos:R:3:forces:R:3
He  1.1138445770524803  0.000000  0.000000   0.5340118242928873  0.0  0.0
He  0.000000  0.000000  0.000000   -0.5340118242928873  0.0  0.0
2
pbc="T T T" Lattice="10.0 0.0 0.0 0.0 10.0 0.0 0.0 0.0 10.0" energy=-0.9225635970969748 Properties=species:S:1:pos:R:3:forces:R:3
He  1.0774596330891242  0.000000  0.000000   3.961656061197333  0.0  0.0
He  0.000000  0.000000  0.000000   -3.961656061197333  0.0  0.0
2
pbc="T T T" Lattice="10.0 0.0 0.0 0.0 10.0 0.0 0.0 0.0 10.0" energy=-0.8833780071314046 Properties=species:S:1:pos:R:3:forces:R:3
He  1.0688249260446765  0.000000  0.000000   5.143461069047717  0.0  0.0
He  0.000000  0.000000  0.000000   -5.143461069047717  0.0  0.0
2
pbc="T T T" Lattice="10.0 0.0 0.0 0.0 10.0 0.0 0.0 0.0 10.0" energy=-0.9525532503447092 Properties=species:S:1:pos:R:3:forces:R:3
He  1.1693758910177805  0.000000  0.000000   -1.7483787709698868  0.0  0.0
He  0.000000  0.000000  0.000000   1.7483787709698868  0.0  0.0
2
pbc="T T T" Lattice="10.0 0.0 0.0 0.0 10.0 0.0 0.0 0.0 10.0" energy=-0.5001715667941931 Properties=species:S:1:pos:R:3:forces:R:3
He  1.3772838956845161  0.000000  0.000000   -1.8049178285831395  0.0  0.0
He  0.000000  0.000000  0.000000   1.8049178285831395  0.0  0.0
2
pbc="T T T" Lattice="10.0 0.0 0.0 0.0 10.0 0.0 0.0 0.0 10.0" energy=-0.9380310252026292 Properties=species:S:1:pos:R:3:forces:R:3
He  1.0816372954461482  0.000000  0.000000   3.4492670712914713  0.0  0.0
He  0.000000  0.000000  0.000000   -3.4492670712914713  0.0  0.0
2
pbc="T T T" Lattice="10.0 0.0 0.0 0.0 10.0 0.0 0.0 0.0 10.0" energy=-0.7782902669274643 Properties=species:S:1:pos:R:3:forces:R:3
He  1.2480825753456466  0.000000  0.000000   -2.3955232006215987  0.0  0.0
He  0.000000  0.000000  0.000000   2.3955232006215987  0.0  0.0
2
pbc="T T T" Lattice="10.0 0.0 0.0 0.0 10.0 0.0 0.0 0.0 10.0" energy=-0.46112121503971953 Properties=species:S:1:pos:R:3:forces:R:3
He  1.3997403712893945  0.000000  0.000000   -1.6734947874028068  0.0  0.0
He  0.000000  0.000000  0.000000   1.6734947874028068  0.0  0.0
2
pbc="T T T" Lattice="10.0 0.0 0.0 0.0 10.0 0.0 0.0 0.0 10.0" energy=-0.7319639937483406 Properties=species:S:1:pos:R:3:forces:R:3
He  1.267521734251287  0.000000  0.000000   -2.36384995500966  0.0  0.0
He  0.000000  0.000000  0.000000   2.36384995500966  0.0  0.0
2
pbc="T T T" Lattice="10.0 0.0 0.0 0.0 10.0 0.0 0.0 0.0 10.0" energy=-0.5471009522416236 Properties=species:S:1:pos:R:3:forces:R:3
He  1.3523074736277971  0.000000  0.000000   -1.952917099572111  0.0  0.0
He  0.000000  0.000000  0.000000   1.952917099572111  0.0  0.0
2
pbc="T T T" Lattice="10.0 0.0 0.0 0.0 10.0 0.0 0.0 0.0 10.0" energy=-0.8297188739461889 Properties=species:S:1:pos:R:3:forces:R:3
He  1.059658277910592  0.000000  0.000000   6.60136357568933  0.0  0.0
He  0.000000  0.000000  0.000000   -6.60136357568933  0.0  0.0
2
pbc="T T T" Lattice="10.0 0.0 0.0 0.0 10.0 0.0 0.0 0.0 10.0" energy=-0.5616639672862187 Properties=species:S:1:pos:R:3:forces:R:3
He  1.344932337053922  0.000000  0.000000   -1.9962355153755311  0.0  0.0
He  0.000000  0.000000  0.000000   1.9962355153755311  0.0  0.0
2
pbc="T T T" Lattice="10.0 0.0 0.0 0.0 10.0 0.0 0.0 0.0 10.0" energy=-0.9755705890108178 Properties=species:S:1:pos:R:3:forces:R:3
He  1.154711739628122  0.000000  0.000000   -1.3704167916581902  0.0  0.0
He  0.000000  0.000000  0.000000   1.3704167916581902  0.0  0.0
2
pbc="T T T" Lattice="10.0 0.0 0.0 0.0 10.0 0.0 0.0 0.0 10.0" energy=-0.7072713515563427 Properties=species:S:1:pos:R:3:forces:R:3
He  1.044405518205098  0.000000  0.000000   9.579872984160447  0.0  0.0
He  0.000000  0.000000  0.000000   -9.579872984160447  0.0  0.0
2
pbc="T T T" Lattice="10.0 0.0 0.0 0.0 10.0 0.0 0.0 0.0 10.0" energy=-0.8404242053818188 Properties=species:S:1:pos:R:3:forces:R:3
He  1.2220317078224014  0.000000  0.000000   -2.3556861432024903  0.0  0.0
He  0.000000  0.000000  0.000000   2.3556861432024903  0.0  0.0
2
pbc="T T T" Lattice="10.0 0.0 0.0 0.0 10.0 0.0 0.0 0.0 10.0" energy=-0.987934869474627 Properties=species:S:1:pos:R:3:forces:R:3
He  1.1031337702962067  0.000000  0.000000   1.326111358486611  0.0  0.0
He  0.000000  0.000000  0.000000   -1.326111358486611  0.0  0.0
2
pbc="T T T" Lattice="10.0 0.0 0.0 0.0 10.0 0.0 0.0 0.0 10.0" energy=-0.921098549987498 Properties=species:S:1:pos:R:3:forces:R:3
He  1.0770919985588159  0.000000  0.000000   4.0085207541390355  0.0  0.0
He  0.000000  0.000000  0.000000   -4.0085207541390355  0.0  0.0
2
pbc="T T T" Lattice="10.0 0.0 0.0 0.0 10.0 0.0 0.0 0.0 10.0" energy=1.3680666488455078 Properties=species:S:1:pos:R:3:forces:R:3
He  0.9610192586999504  0.000000  0.000000   48.78469180220293  0.0  0.0
He  0.000000  0.000000  0.000000   -48.78469180220293  0.0  0.0
2
pbc="T T T" Lattice="10.0 0.0 0.0 0.0 10.0 0.0 0.0 0.0 10.0" energy=-0.7302157179220081 Properties=species:S:1:pos:R:3:forces:R:3
He  1.268261629801301  0.000000  0.000000   -2.3618786993083427  0.0  0.0
He  0.000000  0.000000  0.000000   2.3618786993083427  0.0  0.0
2
pbc="T T T" Lattice="10.0 0.0 0.0 0.0 10.0 0.0 0.0 0.0 10.0" energy=-0.6174493446767686 Properties=species:S:1:pos:R:3:forces:R:3
He  1.035903367272695  0.000000  0.000000   11.596341687900301  0.0  0.0
He  0.000000  0.000000  0.000000   -11.596341687900301  0.0  0.0
2
pbc="T T T" Lattice="10.0 0.0 0.0 0.0 10.0 0.0 0.0 0.0 10.0" energy=-0.9820394589318753 Properties=species:S:1:pos:R:3:forces:R:3
He  1.1497059177925832  0.000000  0.000000   -1.2113330932583182  0.0  0.0
He  0.000000  0.000000  0.000000   1.2113330932583182  0.0  0.0
2
pbc="T T T" Lattice="10.0 0.0 0.0 0.0 10.0 0.0 0.0 0.0 10.0" energy=-0.9716269190489925 Properties=species:S:1:pos:R:3:forces:R:3
He  1.157505344110818  0.000000  0.000000   -1.4521231754807498  0.0  0.0
He  0.000000  0.000000  0.000000   1.4521231754807498  0.0  0.0
2
pbc="T T T" Lattice="10.0 0.0 0.0 0.0 10.0 0.0 0.0 0.0 10.0" energy=-0.9993188565512316 Properties=species:S:1:pos:R:3:forces:R:3
He  1.1176525361536522  0.000000  0.000000   0.28752981045766735  0.0  0.0
He  0.000000  0.000000  0.000000   -0.28752981045766735  0.0  0.0
2
pbc="T T T" Lattice="10.0 0.0 0.0 0.0 10.0 0.0 0.0 0.0 10.0" energy=-0.46074623902050915 Properties=species:S:1:pos:R:3:forces:R:3
He  1.3999645255413695  0.000000  0.000000   -1.6722015286744902  0.0  0.0
He  0.000000  0.000000  0.000000   1.6722015286744902  0.0  0.0
2
pbc="T T T" Lattice="10.0 0.0 0.0 0.0 10.0 0.0 0.0 0.0 10.0" energy=-0.6956598931219508 Properties=species:S:1:pos:R:3:forces:R:3
He  1.2830357149759326  0.000000  0.000000   -2.3132342624373594  0.0  0.0
He  0.000000  0.000000  0.000000   2.3132342624373594  0.0  0.0
2
pbc="T T T" Lattice="10.0 0.0 0.0 0.0 10.0 0.0 0.0 0.0 10.0" energy=-0.7523918299140071 Properties=species:S:1:pos:R:3:forces:R:3
He  1.0493948060321072  0.000000  0.000000   8.521604118945884  0.0  0.0
He  0.000000  0.000000  0.000000   -8.521604118945884  0.0  0.0
2
pbc="T T T" Lattice="10.0 0.0 0.0 0.0 10.0 0.0 0.0 0.0 10.0" energy=-0.4447485706515072 Properties=species:S:1:pos:R:3:forces:R:3
He  1.409693769510243  0.000000  0.000000   -1.6165257329092508  0.0  0.0
He  0.000000  0.000000  0.000000   1.6165257329092508  0.0  0.0
2
pbc="T T T" Lattice="10.0 0.0 0.0 0.0 10.0 0.0 0.0 0.0 10.0" energy=-0.9961358359512713 Properties=species:S:1:pos:R:3:forces:R:3
He  1.1345328081477144  0.000000  0.000000   -0.6166228368428648  0.0  0.0
He  0.000000  0.000000  0.000000   0.6166228368428648  0.0  0.0
2
pbc="T T T" Lattice="10.0 0.0 0.0 0.0 10.0 0.0 0.0 0.0 10.0" energy=-0.9640364504761683 Properties=species:S:1:pos:R:3:forces:R:3
He  1.0904414985787507  0.000000  0.000000   2.4827095776810166  0.0  0.0
He  0.000000  0.000000  0.000000   -2.4827095776810166  0.0  0.0
2
pbc="T T T" Lattice="10.0 0.0 0.0 0.0 10.0 0.0 0.0 0.0 10.0" energy=-0.8368103858671105 Properties=species:S:1:pos:R:3:forces:R:3
He  1.2235639044190614  0.000000  0.000000   -2.361407307634443  0.0  0.0
He  0.000000  0.000000  0.000000   2.361407307634443  0.0  0.0
2
pbc="T T T" Lattice="10.0 0.0 0.0 0.0 10.0 0.0 0.0 0.0 10.0" energy=-0.7606172895995195 Properties=species:S:1:pos:R:3:forces:R:3
He  1.255469269876519  0.000000  0.000000   -2.388443779190583  0.0  0.0
He  0.000000  0.000000  0.000000   2.388443779190583  0.0  0.0
2
pbc="T T T" Lattice="10.0 0.0 0.0 0.0 10.0 0.0 0.0 0.0 10.0" energy=-0.5150808512928119 Properties=species:S:1:pos:R:3:forces:R:3
He  1.3691325446432592  0.000000  0.000000   -1.8532220189892823  0.0  0.0
He  0.000000  0.000000  0.000000   1.8532220189892823  0.0  0.0
2
pbc="T T T" Lattice="10.0 0.0 0.0 0.0 10.0 0.0 0.0 0.0 10.0" energy=-0.5724699693333816 Properties=species:S:1:pos:R:3:forces:R:3
He  1.3395612487016275  0.000000  0.000000   -2.027479750152176  0.0  0.0
He  0.000000  0.000000  0.000000   2.027479750152176  0.0  0.0
2
pbc="T T T" Lattice="10.0 0.0 0.0 0.0 10.0 0.0 0.0 0.0 10.0" energy=-0.4381620858062413 Properties=species:S:1:pos:R:3:forces:R:3
He  1.413797721156452  0.000000  0.000000   -1.5933303258259293  0.0  0.0
He  0.000000  0.000000  0.000000   1.5933303258259293  0.0  0.0
2
pbc="T T T" Lattice="10.0 0.0 0.0 0.0 10.0 0.0 0.0 0.0 10.0" energy=-0.7311976806688052 Properties=species:S:1:pos:R:3:forces:R:3
He  1.2678459730589846  0.000000  0.000000   -2.362992148213343  0.0  0.0
He  0.000000  0.000000  0.000000   2.362992148213343  0.0  0.0
2
pbc="T T T" Lattice="10.0 0.0 0.0 0.0 10.0 0.0 0.0 0.0 10.0" energy=0.8204895936250809 Properties=species:S:1:pos:R:3:forces:R:3
He  0.9735314062659306  0.000000  0.000000   39.071094444189306  0.0  0.0
He  0.000000  0.000000  0.000000   -39.071094444189306  0.0  0.0
2
pbc="T T T" Lattice="10.0 0.0 0.0 0.0 10.0 0.0 0.0 0.0 10.0" energy=-0.5476622960590135 Properties=species:S:1:pos:R:3:forces:R:3
He  1.3520201596481802  0.000000  0.000000   -1.954611569762322  0.0  0.0
He  0.000000  0.000000  0.000000   1.954611569762322  0.0  0.0
2
pbc="T T T" Lattice="10.0 0.0 0.0 0.0 10.0 0.0 0.0 0.0 10.0" energy=-0.2307868776925499 Properties=species:S:1:pos:R:3:forces:R:3
He  1.0106305861325087  0.000000  0.000000   19.547333364162995  0.0  0.0
He  0.000000  0.000000  0.000000   -19.547333364162995  0.0  0.0
2
pbc="T T T" Lattice="10.0 0.0 0.0 0.0 10.0 0.0 0.0 0.0 10.0" energy=-0.4310037515986669 Properties=species:S:1:pos:R:3:forces:R:3
He  1.0220847996288072  0.000000  0.000000   15.53665193452968  0.0  0.0
He  0.000000  0.000000  0.000000   -15.53665193452968  0.0  0.0
2
pbc="T T T" Lattice="10.0 0.0 0.0 0.0 10.0 0.0 0.0 0.0 10.0" energy=-0.5562116772559141 Properties=species:S:1:pos:R:3:forces:R:3
He  1.3476746465919303  0.000000  0.000000   -1.9801758959565952  0.0  0.0
He  0.000000  0.000000  0.000000   1.9801758959565952  0.0  0.0
2
pbc="T T T" Lattice="10.0 0.0 0.0 0.0 10.0 0.0 0.0 0.0 10.0" energy=-0.45164716235787095 Properties=species:S:1:pos:R:3:forces:R:3
He  1.405457798660573  0.000000  0.000000   -1.640652563851895  0.0  0.0
He  0.000000  0.000000  0.000000   1.640652563851895  0.0  0.0
2
pbc="T T T" Lattice="10.0 0.0 0.0 0.0 10.0 0.0 0.0 0.0 10.0" energy=-0.918717988997965 Properties=species:S:1:pos:R:3:forces:R:3
He  1.1870366186171075  0.000000  0.000000   -2.0604384487422287  0.0  0.0
He  0.000000  0.000000  0.000000   2.0604384487422287  0.0  0.0
2
pbc="T T T" Lattice="10.0 0.0 0.0 0.0 10.0 0.0 0.0 0.0 10.0" energy=-0.9966323206986631 Properties=species:S:1:pos:R:3:forces:R:3
He  1.1337021024707237  0.000000  0.000000   -0.5786073434264045  0.0  0.0
He  0.000000  0.000000  0.000000   0.5786073434264045  0.0  0.0
2
pbc="T T T" Lattice="10.0 0.0 0.0 0.0 10.0 0.0 0.0 0.0 10.0" energy=-0.66738459242275 Properties=species:S:1:pos:R:3:forces:R:3
He  1.2953936845989147  0.000000  0.000000   -2.2613615067367956  0.0  0.0
He  0.000000  0.000000  0.000000   2.2613615067367956  0.0  0.0
2
pbc="T T T" Lattice="10.0 0.0 0.0 0.0 10.0 0.0 0.0 0.0 10.0" energy=0.5490053358013656 Properties=species:S:1:pos:R:3:forces:R:3
He  0.9809543893850927  0.000000  0.000000   34.174014143382536  0.0  0.0
He  0.000000  0.000000  0.000000   -34.174014143382536  0.0  0.0
2
pbc="T T T" Lattice="10.0 0.0 0.0 0.0 10.0 0.0 0.0 0.0 10.0" energy=-0.8517670191366531 Properties=species:S:1:pos:R:3:forces:R:3
He  1.21719557967949  0.000000  0.000000   -2.3343237951989373  0.0  0.0
He  0.000000  0.000000  0.000000   2.3343237951989373  0.0  0.0
2
pbc="T T T" Lattice="10.0 0.0 0.0 0.0 10.0 0.0 0.0 0.0 10.0" energy=-0.6769761665710019 Properties=species:S:1:pos:R:3:forces:R:3
He  1.2911697810905811  0.000000  0.000000   -2.280053581445306  0.0  0.0
He  0.000000  0.000000  0.000000   2.280053581445306  0.0  0.0
2
pbc="T T T" Lattice="10.0 0.0 0.0 0.0 10.0 0.0 0.0 0.0 10.0" energy=-0.6810505236786148 Properties=species:S:1:pos:R:3:forces:R:3
He  1.289385812603806  0.000000  0.000000   -2.287662628614113  0.0  0.0
He  0.000000  0.000000  0.000000   2.287662628614113  0.0  0.0
2
pbc="T T T" Lattice="10.0 0.0 0.0 0.0 10.0 0.0 0.0 0.0 10.0" energy=-0.9603510145876732 Properties=species:S:1:pos:R:3:forces:R:3
He  1.088999949277939  0.000000  0.000000   2.6310691613767183  0.0  0.0
He  0.000000  0.000000  0.000000   -2.6310691613767183  0.0  0.0
2
pbc="T T T" Lattice="10.0 0.0 0.0 0.0 10.0 0.0 0.0 0.0 10.0" energy=-0.9996025781292304 Properties=species:S:1:pos:R:3:forces:R:3
He  1.118775340574075  0.000000  0.000000   0.21809058935522385  0.0  0.0
He  0.000000  0.000000  0.000000   -0.21809058935522385  0.0  0.0
2
pbc="T T T" Lattice="10.0 0.0 0.0 0.0 10.0 0.0 0.0 0.0 10.0" energy=-0.44529365047039793 Properties=species:S:1:pos:R:3:forces:R:3
He  1.4093567766842705  0.000000  0.000000   -1.618438398579071  0.0  0.0
He  0.000000  0.000000  0.000000   1.618438398579071  0.0  0.0
2
pbc="T T T" Lattice="10.0 0.0 0.0 0.0 10.0 0.0 0.0 0.0 10.0" energy=-0.9002217581016707 Properties=species:S:1:pos:R:3:forces:R:3
He  1.0722657971050666  0.000000  0.000000   4.651703158917807  0.0  0.0
He  0.000000  0.000000  0.000000   -4.651703158917807  0.0  0.0
2
pbc="T T T" Lattice="10.0 0.0 0.0 0.0 10.0 0.0 0.0 0.0 10.0" energy=-0.8641882796960294 Properties=species:S:1:pos:R:3:forces:R:3
He  1.2118414455199378  0.000000  0.000000   -2.304407375393811  0.0  0.0
He  0.000000  0.000000  0.000000   2.304407375393811  0.0  0.0
2
pbc="T T T" Lattice="10.0 0.0 0.0 0.0 10.0 0.0 0.0 0.0 10.0" energy=-0.14002501383432664 Properties=species:S:1:pos:R:3:forces:R:3
He  1.0061860597156251  0.000000  0.000000   21.316018028316165  0.0  0.0
He  0.000000  0.000000  0.000000   -21.316018028316165  0.0  0.0
2
pbc="T T T" Lattice="10.0 0.0 0.0 0.0 10.0 0.0 0.0 0.0 10.0" energy=-0.6931967919664386 Properties=species:S:1:pos:R:3:forces:R:3
He  1.2841014474532972  0.000000  0.000000   -2.3091164826432644  0.0  0.0
He  0.000000  0.000000  0.000000   2.3091164826432644  0.0  0.0
2
pbc="T T T" Lattice="10.0 0.0 0.0 0.0 10.0 0.0 0.0 0.0 10.0" energy=-0.8288237884715957 Properties=species:S:1:pos:R:3:forces:R:3
He  1.2269379675300716  0.000000  0.000000   -2.3723278410892963  0.0  0.0
He  0.000000  0.000000  0.000000   2.3723278410892963  0.0  0.0
2
pbc="T T T" Lattice="10.0 0.0 0.0 0.0 10.0 0.0 0.0 0.0 10.0" energy=-0.5510148714234964 Properties=species:S:1:pos:R:3:forces:R:3
He  1.3503093589746618  0.000000  0.000000   -1.96469109006149  0.0  0.0
He  0.000000  0.000000  0.000000   1.96469109006149  0.0  0.0
2
pbc="T T T" Lattice="10.0 0.0 0.0 0.0 10.0 0.0 0.0 0.0 10.0" energy=0.44975966219476327 Properties=species:S:1:pos:R:3:forces:R:3
He  0.9839380940380316  0.000000  0.000000   32.36568646556339  0.0  0.0
He  0.000000  0.000000  0.000000   -32.36568646556339  0.0  0.0
2
pbc="T T T" Lattice="10.0 0.0 0.0 0.0 10.0 0.0 0.0 0.0 10.0" energy=-0.7544347803844236 Properties=species:S:1:pos:R:3:forces:R:3
He  1.2580598856895726  0.000000  0.000000   -2.3844348826443778  0.0  0.0
He  0.000000  0.000000  0.000000   2.3844348826443778  0.0  0.0
2
pbc="T T T" Lattice="10.0 0.0 0.0 0.0 10.0 0.0 0.0 0.0 10.0" energy=-0.4494422453914805 Properties=species:S:1:pos:R:3:forces:R:3
He  1.406804884662961  0.000000  0.000000   -1.632960240457948  0.0  0.0
He  0.000000  0.000000  0.000000   1.632960240457948  0.0  0.0
2
pbc="T T T" Lattice="10.0 0.0 0.0 0.0 10.0 0.0 0.0 0.0 10.0" energy=-0.9771181802799889 Properties=species:S:1:pos:R:3:forces:R:3
He  1.153567955491974  0.000000  0.000000   -1.335531812340434  0.0  0.0
He  0.000000  0.000000  0.000000   1.335531812340434  0.0  0.0
2
pbc="T T T" Lattice="10.0 0.0 0.0 0.0 10.0 0.0 0.0 0.0 10.0" energy=-0.9713909935057203 Properties=species:S:1:pos:R:3:forces:R:3
He  1.093604924854171  0.000000  0.000000   2.1698985446982197  0.0  0.0
He  0.000000  0.000000  0.000000   -2.1698985446982197  0.0  0.0
2
pbc="T T T" Lattice="10.0 0.0 0.0 0.0 10.0 0.0 0.0 0.0 10.0" energy=-0.7958413706246144 Properties=species:S:1:pos:R:3:forces:R:3
He  1.240757755721123  0.000000  0.000000   -2.3954445514017033  0.0  0.0
He  0.000000  0.000000  0.000000   2.3954445514017033  0.0  0.0
2
pbc="T T T" Lattice="10.0 0.0 0.0 0.0 10.0 0.0 0.0 0.0 10.0" energy=-0.6485480892243257 Properties=species:S:1:pos:R:3:forces:R:3
He  1.30379620400076  0.000000  0.000000   -2.221652912391621  0.0  0.0
He  0.000000  0.000000  0.000000   2.221652912391621  0.0  0.0
2
pbc="T T T" Lattice="10.0 0.0 0.0 0.0 10.0 0.0 0.0 0.0 10.0" energy=-0.9682550463471173 Properties=species:S:1:pos:R:3:forces:R:3
He  1.0922035978669258  0.000000  0.000000   2.306340208957927  0.0  0.0
He  0.000000  0.000000  0.000000   -2.306340208957927  0.0  0.0
2
pbc="T T T" Lattice="10.0 0.0 0.0 0.0 10.0 0.0 0.0 0.0 10.0" energy=-0.7356613727649406 Properties=species:S:1:pos:R:3:forces:R:3
He  1.2659589345424203  0.000000  0.000000   -2.367850232819856  0.0  0.0
He  0.000000  0.000000  0.000000   2.367850232819856  0.0  0.0
2
pbc="T T T" Lattice="10.0 0.0 0.0 0.0 10.0 0.0 0.0 0.0 10.0" energy=-0.9994853241759563 Properties=species:S:1:pos:R:3:forces:R:3
He  1.118273193418264  0.000000  0.000000   0.248967538405247  0.0  0.0
He  0.000000  0.000000  0.000000   -0.248967538405247  0.0  0.0
2
pbc="T T T" Lattice="10.0 0.0 0.0 0.0 10.0 0.0 0.0 0.0 10.0" energy=-0.44151958314851847 Properties=species:S:1:pos:R:3:forces:R:3
He  1.4116982984430198  0.000000  0.000000   -1.605173486169626  0.0  0.0
He  0.000000  0.000000  0.000000   1.605173486169626  0.0  0.0
2
pbc="T T T" Lattice="10.0 0.0 0.0 0.0 10.0 0.0 0.0 0.0 10.0" energy=-0.7196221353614074 Properties=species:S:1:pos:R:3:forces:R:3
He  1.2727589729622535  0.000000  0.000000   -2.34887513827512  0.0  0.0
He  0.000000  0.000000  0.000000   2.34887513827512  0.0  0.0
2
pbc="T T T" Lattice="10.0 0.0 0.0 0.0 10.0 0.0 0.0 0.0 10.0" energy=1.1133378673605545 Properties=species:S:1:pos:R:3:forces:R:3
He  0.9664969026884116  0.000000  0.000000   44.28865006445284  0.0  0.0
He  0.000000  0.000000  0.000000   -44.28865006445284  0.0  0.0
2
pbc="T T T" Lattice="10.0 0.0 0.0 0.0 10.0 0.0 0.0 0.0 10.0" energy=-0.9757148144820815 Properties=species:S:1:pos:R:3:forces:R:3
He  1.0956930261911892  0.000000  0.000000   1.9726937655963033  0.0  0.0
He  0.000000  0.000000  0.000000   -1.9726937655963033  0.0  0.0
2
pbc="T T T" Lattice="10.0 0.0 0.0 0.0 10.0 0.0 0.0 0.0 10.0" energy=-0.7106262185963637 Properties=species:S:1:pos:R:3:forces:R:3
He  1.276598841222083  0.000000  0.000000   -2.336467316371298  0.0  0.0
He  0.000000  0.000000  0.000000   2.336467316371298  0.0  0.0
2
pbc="T T T" Lattice="10.0 0.0 0.0 0.0 10.0 0.0 0.0 0.0 10.0" energy=-0.6042716990268922 Properties=species:S:1:pos:R:3:forces:R:3
He  1.3242080414492035  0.000000  0.000000   -2.1145416841032656  0.0  0.0
He  0.000000  0.000000  0.000000   2.1145416841032656  0.0  0.0
2
pbc="T T T" Lattice="10.0 0.0 0.0 0.0 10.0 0.0 0.0 0.0 10.0" energy=-0.44669904070179445 Properties=species:S:1:pos:R:3:forces:R:3
He  1.4084897340752234  0.000000  0.000000   -1.6233649009414064  0.0  0.0
He  0.000000  0.000000  0.000000   1.6233649009414064  0.0  0.0
2
pbc="T T T" Lattice="10.0 0.0 0.0 0.0 10.0 0.0 0.0 0.0 10.0" energy=-0.5885093089871146 Properties=species:S:1:pos:R:3:forces:R:3
He  1.3317371234868376  0.000000  0.000000   -2.0723433174779062  0.0  0.0
He  0.000000  0.000000  0.000000   2.0723433174779062  0.0  0.0
2
pbc="T T T" Lattice="10.0 0.0 0.0 0.0 10.0 0.0 0.0 0.0 10.0" energy=-0.7843871801297537 Properties=species:S:1:pos:R:3:forces:R:3
He  1.2455379622621994  0.000000  0.000000   -2.3963472448011762  0.0  0.0
He  0.000000  0.000000  0.000000   2.3963472448011762  0.0  0.0
2
pbc="T T T" Lattice="10.0 0.0 0.0 0.0 10.0 0.0 0.0 0.0 10.0" energy=-0.7002965265268652 Properties=species:S:1:pos:R:3:forces:R:3
He  1.2810345971927137  0.000000  0.000000   -2.3207647369401743  0.0  0.0
He  0.000000  0.000000  0.000000   2.3207647369401743  0.0  0.0
2
pbc="T T T" Lattice="10.0 0.0 0.0 0.0 10.0 0.0 0.0 0.0 10.0" energy=-0.5225759626094897 Properties=species:S:1:pos:R:3:forces:R:3
He  1.0283702295965507  0.000000  0.000000   13.633799793311404  0.0  0.0
He  0.000000  0.000000  0.000000   -13.633799793311404  0.0  0.0
2
pbc="T T T" Lattice="10.0 0.0 0.0 0.0 10.0 0.0 0.0 0.0 10.0" energy=0.9049213600026889 Properties=species:S:1:pos:R:3:forces:R:3
He  0.9714111754936  0.000000  0.000000   40.58150033892793  0.0  0.0
He  0.000000  0.000000  0.000000   -40.58150033892793  0.0  0.0
2
pbc="T T T" Lattice="10.0 0.0 0.0 0.0 10.0 0.0 0.0 0.0 10.0" energy=-0.9259909008962058 Properties=species:S:1:pos:R:3:forces:R:3
He  1.1834621058443626  0.000000  0.000000   -2.008044371485126  0.0  0.0
He  0.000000  0.000000  0.000000   2.008044371485126  0.0  0.0
2
pbc="T T T" Lattice="10.0 0.0 0.0 0.0 10.0 0.0 0.0 0.0 10.0" energy=-0.9334310852288598 Properties=species:S:1:pos:R:3:forces:R:3
He  1.179700990873083  0.000000  0.000000   -1.9473471120335943  0.0  0.0
He  0.000000  0.000000  0.000000   1.9473471120335943  0.0  0.0
2
pbc="T T T" Lattice="10.0 0.0 0.0 0.0 10.0 0.0 0.0 0.0 10.0" energy=-0.8533227557900144 Properties=species:S:1:pos:R:3:forces:R:3
He  1.2165286412973877  0.000000  0.000000   -2.330967644916157  0.0  0.0
He  0.000000  0.000000  0.000000   2.330967644916157  0.0  0.0
2
pbc="T T T" Lattice="10.0 0.0 0.0 0.0 10.0 0.0 0.0 0.0 10.0" energy=-0.7551159761205093 Properties=species:S:1:pos:R:3:forces:R:3
He  1.0497157086190771  0.000000  0.000000   8.456479374695386  0.0  0.0
He  0.000000  0.000000  0.000000   -8.456479374695386  0.0  0.0
2