2
pbc="T T T" Lattice=" 10.000000 0.0 0.0 0.0  10.000000 0.0 0.0 0.0  10.000000" energy=       -0.3922954264 Properties=species:S:1:pos:R:3:forces:R:3
He       0.000000       0.000000       0.000000      -1.427934       0.000000       0.000000
He       1.444180       0.000000       0.000000       1.427934       0.000000       0.000000
2
pbc="T T T" Lattice=" 10.000000 0.0 0.0 0.0  10.000000 0.0 0.0 0.0  10.000000" energy=       -0.5753960193 Properties=species:S:1:pos:R:3:forces:R:3
He       0.000000       0.000000       0.000000      -2.035802       0.000000       0.000000
He       1.338121       0.000000       0.000000       2.035802       0.000000       0.000000
2
pbc="T T T" Lattice=" 10.000000 0.0 0.0 0.0  10.000000 0.0 0.0 0.0  10.000000" energy=       -0.1469614950 Properties=species:S:1:pos:R:3:forces:R:3
He       0.000000       0.000000       0.000000      -0.491395       0.000000       0.000000
He       1.723152       0.000000       0.000000       0.491395       0.000000       0.000000
2
pbc="T T T" Lattice=" 10.000000 0.0 0.0 0.0  10.000000 0.0 0.0 0.0  10.000000" energy=       -0.9370076951 Properties=species:S:1:pos:R:3:forces:R:3
He       0.000000       0.000000       0.000000       3.484281       0.000000       0.000000
He       1.081342       0.000000       0.000000      -3.484281       0.000000       0.000000
2
pbc="T T T" Lattice=" 10.000000 0.0 0.0 0.0  10.000000 0.0 0.0 0.0  10.000000" energy=       -0.9499918674 Properties=species:S:1:pos:R:3:forces:R:3
He       0.000000       0.000000       0.000000      -1.779426       0.000000       0.000000
He       1.170828       0.000000       0.000000       1.779426       0.000000       0.000000
2
pbc="T T T" Lattice=" 10.000000 0.0 0.0 0.0  10.000000 0.0 0.0 0.0  10.000000" energy=       -0.0831977303 Properties=species:S:1:pos:R:3:forces:R:3
He       0.000000       0.000000       0.000000      -0.257015       0.000000       0.000000
He       1.900072       0.000000       0.000000       0.257015       0.000000       0.000000
2
pbc="T T T" Lattice=" 10.000000 0.0 0.0 0.0  10.000000 0.0 0.0 0.0  10.000000" energy=        1.8565605748 Properties=species:S:1:pos:R:3:forces:R:3
He       0.000000       0.000000       0.000000      57.323754       0.000000       0.000000
He       0.951793       0.000000       0.000000     -57.323754       0.000000       0.000000
2
pbc="T T T" Lattice=" 10.000000 0.0 0.0 0.0  10.000000 0.0 0.0 0.0  10.000000" energy=       -0.0742312935 Properties=species:S:1:pos:R:3:forces:R:3
He       0.000000       0.000000       0.000000      -0.225469       0.000000       0.000000
He       1.937299       0.000000       0.000000       0.225469       0.000000       0.000000
2
pbc="T T T" Lattice=" 10.000000 0.0 0.0 0.0  10.000000 0.0 0.0 0.0  10.000000" energy=       -0.0350318781 Properties=species:S:1:pos:R:3:forces:R:3
He       0.000000       0.000000       0.000000      -0.094719       0.000000       0.000000
He       2.199330       0.000000       0.000000       0.094719       0.000000       0.000000
2
pbc="T T T" Lattice=" 10.000000 0.0 0.0 0.0  10.000000 0.0 0.0 0.0  10.000000" energy=       -0.4413420755 Properties=species:S:1:pos:R:3:forces:R:3
He       0.000000       0.000000       0.000000      -1.604548       0.000000       0.000000
He       1.411809       0.000000       0.000000       1.604548       0.000000       0.000000
2
pbc="T T T" Lattice=" 10.000000 0.0 0.0 0.0  10.000000 0.0 0.0 0.0  10.000000" energy=       -0.0890229344 Properties=species:S:1:pos:R:3:forces:R:3
He       0.000000       0.000000       0.000000      -0.277749       0.000000       0.000000
He       1.878273       0.000000       0.000000       0.277749       0.000000       0.000000
2
pbc="T T T" Lattice=" 10.000000 0.0 0.0 0.0  10.000000 0.0 0.0 0.0  10.000000" energy=       -0.0278704658 Properties=species:S:1:pos:R:3:forces:R:3
He       0.000000       0.000000       0.000000      -0.072651       0.000000       0.000000
He       2.285474       0.000000       0.000000       0.072651       0.000000       0.000000
2
pbc="T T T" Lattice=" 10.000000 0.0 0.0 0.0  10.000000 0.0 0.0 0.0  10.000000" energy=       -0.0236955980 Properties=species:S:1:pos:R:3:forces:R:3
He       0.000000       0.000000       0.000000      -0.060174       0.000000       0.000000
He       2.348548       0.000000       0.000000       0.060174       0.000000       0.000000
2
pbc="T T T" Lattice=" 10.000000 0.0 0.0 0.0  10.000000 0.0 0.0 0.0  10.000000" energy=       -0.0165043005 Properties=species:S:1:pos:R:3:forces:R:3
He       0.000000       0.000000       0.000000      -0.039521       0.000000       0.000000
He       2.495226       0.000000       0.000000       0.039521       0.000000       0.000000
2
pbc="T T T" Lattice=" 10.000000 0.0 0.0 0.0  10.000000 0.0 0.0 0.0  10.000000" energy=       -0.0131567540 Properties=species:S:1:pos:R:3:forces:R:3
He       0.000000       0.000000       0.000000      -0.030359       0.000000       0.000000
He       2.591667       0.000000       0.000000       0.030359       0.000000       0.000000
2
pbc="T T T" Lattice=" 10.000000 0.0 0.0 0.0  10.000000 0.0 0.0 0.0  10.000000" energy=       -0.9750956692 Properties=species:S:1:pos:R:3:forces:R:3
He       0.000000       0.000000       0.000000      -1.380781       0.000000       0.000000
He       1.155057       0.000000       0.000000       1.380781       0.000000       0.000000
2
pbc="T T T" Lattice=" 10.000000 0.0 0.0 0.0  10.000000 0.0 0.0 0.0  10.000000" energy=       -0.6170910910 Properties=species:S:1:pos:R:3:forces:R:3
He       0.000000       0.000000       0.000000      -2.147372       0.000000       0.000000
He       1.318192       0.000000       0.000000       2.147372       0.000000       0.000000
2
pbc="T T T" Lattice=" 10.000000 0.0 0.0 0.0  10.000000 0.0 0.0 0.0  10.000000" energy=       -0.8421558389 Properties=species:S:1:pos:R:3:forces:R:3
He       0.000000       0.000000       0.000000      -2.352765       0.000000       0.000000
He       1.221296       0.000000       0.000000       2.352765       0.000000       0.000000
2
pbc="T T T" Lattice=" 10.000000 0.0 0.0 0.0  10.000000 0.0 0.0 0.0  10.000000" energy=       -0.0294374651 Properties=species:S:1:pos:R:3:forces:R:3
He       0.000000       0.000000       0.000000      -0.077412       0.000000       0.000000
He       2.264581       0.000000       0.000000       0.077412       0.000000       0.000000
2
pbc="T T T" Lattice=" 10.000000 0.0 0.0 0.0  10.000000 0.0 0.0 0.0  10.000000" energy=       -0.3183170083 Properties=species:S:1:pos:R:3:forces:R:3
He       0.000000       0.000000       0.000000      -1.150322       0.000000       0.000000
He       1.501750       0.000000       0.000000       1.150322       0.000000       0.000000
2
pbc="T T T" Lattice=" 10.000000 0.0 0.0 0.0  10.000000 0.0 0.0 0.0  10.000000" energy=       -0.1018062820 Properties=species:S:1:pos:R:3:forces:R:3
He       0.000000       0.000000       0.000000      -0.323828       0.000000       0.000000
He       1.835682       0.000000       0.000000       0.323828       0.000000       0.000000
2
pbc="T T T" Lattice=" 10.000000 0.0 0.0 0.0  10.000000 0.0 0.0 0.0  10.000000" energy=       -0.0352702452 Properties=species:S:1:pos:R:3:forces:R:3
He       0.000000       0.000000       0.000000      -0.095466       0.000000       0.000000
He       2.196823       0.000000       0.000000       0.095466       0.000000       0.000000
2
pbc="T T T" Lattice=" 10.000000 0.0 0.0 0.0  10.000000 0.0 0.0 0.0  10.000000" energy=       -0.7391063214 Properties=species:S:1:pos:R:3:forces:R:3
He       0.000000       0.000000       0.000000      -2.371367       0.000000       0.000000
He       1.264505       0.000000       0.000000       2.371367       0.000000       0.000000
2
pbc="T T T" Lattice=" 10.000000 0.0 0.0 0.0  10.000000 0.0 0.0 0.0  10.000000" energy=       -0.4102765559 Properties=species:S:1:pos:R:3:forces:R:3
He       0.000000       0.000000       0.000000      -1.493526       0.000000       0.000000
He       1.431869       0.000000       0.000000       1.493526       0.000000       0.000000
2
pbc="T T T" Lattice=" 10.000000 0.0 0.0 0.0  10.000000 0.0 0.0 0.0  10.000000" energy=       -0.0142689229 Properties=species:S:1:pos:R:3:forces:R:3
He       0.000000       0.000000       0.000000      -0.033365       0.000000       0.000000
He       2.556732       0.000000       0.000000       0.033365       0.000000       0.000000
2
pbc="T T T" Lattice=" 10.000000 0.0 0.0 0.0  10.000000 0.0 0.0 0.0  10.000000" energy=       -0.6321170553 Properties=species:S:1:pos:R:3:forces:R:3
He       0.000000       0.000000       0.000000      11.273770       0.000000       0.000000
He       1.037186       0.000000       0.000000     -11.273770       0.000000       0.000000
2
pbc="T T T" Lattice=" 10.000000 0.0 0.0 0.0  10.000000 0.0 0.0 0.0  10.000000" energy=       -0.0782024323 Properties=species:S:1:pos:R:3:forces:R:3
He       0.000000       0.000000       0.000000      -0.239382       0.000000       0.000000
He       1.920207       0.000000       0.000000       0.239382       0.000000       0.000000
2
pbc="T T T" Lattice=" 10.000000 0.0 0.0 0.0  10.000000 0.0 0.0 0.0  10.000000" energy=       -0.7689223095 Properties=species:S:1:pos:R:3:forces:R:3
He       0.000000       0.000000       0.000000       8.123977       0.000000       0.000000
He       1.051381       0.000000       0.000000      -8.123977       0.000000       0.000000
2
pbc="T T T" Lattice=" 10.000000 0.0 0.0 0.0  10.000000 0.0 0.0 0.0  10.000000" energy=       -0.1324313541 Properties=species:S:1:pos:R:3:forces:R:3
He       0.000000       0.000000       0.000000      -0.436808       0.000000       0.000000
He       1.754499       0.000000       0.000000       0.436808       0.000000       0.000000
2
pbc="T T T" Lattice=" 10.000000 0.0 0.0 0.0  10.000000 0.0 0.0 0.0  10.000000" energy=       -0.7259659985 Properties=species:S:1:pos:R:3:forces:R:3
He       0.000000       0.000000       0.000000       9.145811       0.000000       0.000000
He       1.046402       0.000000       0.000000      -9.145811       0.000000       0.000000
2
pbc="T T T" Lattice=" 10.000000 0.0 0.0 0.0  10.000000 0.0 0.0 0.0  10.000000" energy=       -0.2268355992 Properties=species:S:1:pos:R:3:forces:R:3
He       0.000000       0.000000       0.000000      -0.797653       0.000000       0.000000
He       1.596684       0.000000       0.000000       0.797653       0.000000       0.000000
2
pbc="T T T" Lattice=" 10.000000 0.0 0.0 0.0  10.000000 0.0 0.0 0.0  10.000000" energy=       -0.0924440278 Properties=species:S:1:pos:R:3:forces:R:3
He       0.000000       0.000000       0.000000      -0.290007       0.000000       0.000000
He       1.866220       0.000000       0.000000       0.290007       0.000000       0.000000
2
pbc="T T T" Lattice=" 10.000000 0.0 0.0 0.0  10.000000 0.0 0.0 0.0  10.000000" energy=       -0.2139983880 Properties=species:S:1:pos:R:3:forces:R:3
He       0.000000       0.000000       0.000000      -0.748025       0.000000       0.000000
He       1.613301       0.000000       0.000000       0.748025       0.000000       0.000000
2
pbc="T T T" Lattice=" 10.000000 0.0 0.0 0.0  10.000000 0.0 0.0 0.0  10.000000" energy=       -0.0691537948 Properties=species:S:1:pos:R:3:forces:R:3
He       0.000000       0.000000       0.000000      -0.207824       0.000000       0.000000
He       1.960750       0.000000       0.000000       0.207824       0.000000       0.000000
2
pbc="T T T" Lattice=" 10.000000 0.0 0.0 0.0  10.000000 0.0 0.0 0.0  10.000000" energy=       -0.1359657601 Properties=species:S:1:pos:R:3:forces:R:3
He       0.000000       0.000000       0.000000      -0.450037       0.000000       0.000000
He       1.746528       0.000000       0.000000       0.450037       0.000000       0.000000
2
pbc="T T T" Lattice=" 10.000000 0.0 0.0 0.0  10.000000 0.0 0.0 0.0  10.000000" energy=       -0.1778761567 Properties=species:S:1:pos:R:3:forces:R:3
He       0.000000       0.000000       0.000000      -0.608999       0.000000       0.000000
He       1.666734       0.000000       0.000000       0.608999       0.000000       0.000000
2
pbc="T T T" Lattice=" 10.000000 0.0 0.0 0.0  10.000000 0.0 0.0 0.0  10.000000" energy=       -0.2570537803 Properties=species:S:1:pos:R:3:forces:R:3
He       0.000000       0.000000       0.000000      -0.914581       0.000000       0.000000
He       1.561333       0.000000       0.000000       0.914581       0.000000       0.000000
2
pbc="T T T" Lattice=" 10.000000 0.0 0.0 0.0  10.000000 0.0 0.0 0.0  10.000000" energy=       -0.6389081795 Properties=species:S:1:pos:R:3:forces:R:3
He       0.000000       0.000000       0.000000      -2.199896       0.000000       0.000000
He       1.308157       0.000000       0.000000       2.199896       0.000000       0.000000
2
pbc="T T T" Lattice=" 10.000000 0.0 0.0 0.0  10.000000 0.0 0.0 0.0  10.000000" energy=       -0.4392620949 Properties=species:S:1:pos:R:3:forces:R:3
He       0.000000       0.000000       0.000000      -1.597215       0.000000       0.000000
He       1.413108       0.000000       0.000000       1.597215       0.000000       0.000000
2
pbc="T T T" Lattice=" 10.000000 0.0 0.0 0.0  10.000000 0.0 0.0 0.0  10.000000" energy=       -0.0136795795 Properties=species:S:1:pos:R:3:forces:R:3
He       0.000000       0.000000       0.000000      -0.031767       0.000000       0.000000
He       2.574833       0.000000       0.000000       0.031767       0.000000       0.000000
2
pbc="T T T" Lattice=" 10.000000 0.0 0.0 0.0  10.000000 0.0 0.0 0.0  10.000000" energy=       -0.0769037007 Properties=species:S:1:pos:R:3:forces:R:3
He       0.000000       0.000000       0.000000      -0.234822       0.000000       0.000000
He       1.925685       0.000000       0.000000       0.234822       0.000000       0.000000
2
pbc="T T T" Lattice=" 10.000000 0.0 0.0 0.0  10.000000 0.0 0.0 0.0  10.000000" energy=       -0.1146860684 Properties=species:S:1:pos:R:3:forces:R:3
He       0.000000       0.000000       0.000000      -0.370949       0.000000       0.000000
He       1.798543       0.000000       0.000000       0.370949       0.000000       0.000000
2
pbc="T T T" Lattice=" 10.000000 0.0 0.0 0.0  10.000000 0.0 0.0 0.0  10.000000" energy=       -0.1763448307 Properties=species:S:1:pos:R:3:forces:R:3
He       0.000000       0.000000       0.000000      -0.603137       0.000000       0.000000
He       1.669260       0.000000       0.000000       0.603137       0.000000       0.000000
2
pbc="T T T" Lattice=" 10.000000 0.0 0.0 0.0  10.000000 0.0 0.0 0.0  10.000000" energy=       -0.0368991525 Properties=species:S:1:pos:R:3:forces:R:3
He       0.000000       0.000000       0.000000      -0.100593       0.000000       0.000000
He       2.180202       0.000000       0.000000       0.100593       0.000000       0.000000
2
pbc="T T T" Lattice=" 10.000000 0.0 0.0 0.0  10.000000 0.0 0.0 0.0  10.000000" energy=       -0.8336483277 Properties=species:S:1:pos:R:3:forces:R:3
He       0.000000       0.000000       0.000000       6.498953       0.000000       0.000000
He       1.060258       0.000000       0.000000      -6.498953       0.000000       0.000000
2
pbc="T T T" Lattice=" 10.000000 0.0 0.0 0.0  10.000000 0.0 0.0 0.0  10.000000" energy=       -0.9935072740 Properties=species:S:1:pos:R:3:forces:R:3
He       0.000000       0.000000       0.000000       0.942949       0.000000       0.000000
He       1.108058       0.000000       0.000000      -0.942949       0.000000       0.000000
2
pbc="T T T" Lattice=" 10.000000 0.0 0.0 0.0  10.000000 0.0 0.0 0.0  10.000000" energy=       -0.5501462549 Properties=species:S:1:pos:R:3:forces:R:3
He       0.000000       0.000000       0.000000      -1.962086       0.000000       0.000000
He       1.350752       0.000000       0.000000       1.962086       0.000000       0.000000
2
pbc="T T T" Lattice=" 10.000000 0.0 0.0 0.0  10.000000 0.0 0.0 0.0  10.000000" energy=       -0.0343721730 Properties=species:S:1:pos:R:3:forces:R:3
He       0.000000       0.000000       0.000000      -0.092654       0.000000       0.000000
He       2.206372       0.000000       0.000000       0.092654       0.000000       0.000000
2
pbc="T T T" Lattice=" 10.000000 0.0 0.0 0.0  10.000000 0.0 0.0 0.0  10.000000" energy=       -0.4076845501 Properties=species:S:1:pos:R:3:forces:R:3
He       0.000000       0.000000       0.000000      -1.484127       0.000000       0.000000
He       1.433610       0.000000       0.000000       1.484127       0.000000       0.000000
2
pbc="T T T" Lattice=" 10.000000 0.0 0.0 0.0  10.000000 0.0 0.0 0.0  10.000000" energy=       -0.2543950185 Properties=species:S:1:pos:R:3:forces:R:3
He       0.000000       0.000000       0.000000      -0.904296       0.000000       0.000000
He       1.564256       0.000000       0.000000       0.904296       0.000000       0.000000
2
pbc="T T T" Lattice=" 10.000000 0.0 0.0 0.0  10.000000 0.0 0.0 0.0  10.000000" energy=       -0.0520308952 Properties=species:S:1:pos:R:3:forces:R:3
He       0.000000       0.000000       0.000000      -0.149704       0.000000       0.000000
He       2.057498       0.000000       0.000000       0.149704       0.000000       0.000000
2
pbc="T T T" Lattice=" 10.000000 0.0 0.0 0.0  10.000000 0.0 0.0 0.0  10.000000" energy=       -0.0456147221 Properties=species:S:1:pos:R:3:forces:R:3
He       0.000000       0.000000       0.000000      -0.128579       0.000000       0.000000
He       2.103710       0.000000       0.000000       0.128579       0.000000       0.000000
2
pbc="T T T" Lattice=" 10.000000 0.0 0.0 0.0  10.000000 0.0 0.0 0.0  10.000000" energy=       -0.1259660847 Properties=species:S:1:pos:R:3:forces:R:3
He       0.000000       0.000000       0.000000      -0.412701       0.000000       0.000000
He       1.769725       0.000000       0.000000       0.412701       0.000000       0.000000
2
pbc="T T T" Lattice=" 10.000000 0.0 0.0 0.0  10.000000 0.0 0.0 0.0  10.000000" energy=       -0.0732271324 Properties=species:S:1:pos:R:3:forces:R:3
He       0.000000       0.000000       0.000000      -0.221966       0.000000       0.000000
He       1.941787       0.000000       0.000000       0.221966       0.000000       0.000000
2
pbc="T T T" Lattice=" 10.000000 0.0 0.0 0.0  10.000000 0.0 0.0 0.0  10.000000" energy=       -0.0249963624 Properties=species:S:1:pos:R:3:forces:R:3
He       0.000000       0.000000       0.000000      -0.064027       0.000000       0.000000
He       2.327594       0.000000       0.000000       0.064027       0.000000       0.000000
2
pbc="T T T" Lattice=" 10.000000 0.0 0.0 0.0  10.000000 0.0 0.0 0.0  10.000000" energy=       -0.2363137648 Properties=species:S:1:pos:R:3:forces:R:3
He       0.000000       0.000000       0.000000      -0.834326       0.000000       0.000000
He       1.585067       0.000000       0.000000       0.834326       0.000000       0.000000
2
pbc="T T T" Lattice=" 10.000000 0.0 0.0 0.0  10.000000 0.0 0.0 0.0  10.000000" energy=       -0.5777035489 Properties=species:S:1:pos:R:3:forces:R:3
He       0.000000       0.000000       0.000000      -2.042323       0.000000       0.000000
He       1.336989       0.000000       0.000000       2.042323       0.000000       0.000000
2
pbc="T T T" Lattice=" 10.000000 0.0 0.0 0.0  10.000000 0.0 0.0 0.0  10.000000" energy=       -0.0142926087 Properties=species:S:1:pos:R:3:forces:R:3
He       0.000000       0.000000       0.000000      -0.033430       0.000000       0.000000
He       2.556023       0.000000       0.000000       0.033430       0.000000       0.000000
2
pbc="T T T" Lattice=" 10.000000 0.0 0.0 0.0  10.000000 0.0 0.0 0.0  10.000000" energy=       -0.0145004021 Properties=species:S:1:pos:R:3:forces:R:3
He       0.000000       0.000000       0.000000      -0.033996       0.000000       0.000000
He       2.549859       0.000000       0.000000       0.033996       0.000000       0.000000
2
pbc="T T T" Lattice=" 10.000000 0.0 0.0 0.0  10.000000 0.0 0.0 0.0  10.000000" energy=       -0.1480210694 Properties=species:S:1:pos:R:3:forces:R:3
He       0.000000       0.000000       0.000000      -0.495395       0.000000       0.000000
He       1.721004       0.000000       0.000000       0.495395       0.000000       0.000000
2
pbc="T T T" Lattice=" 10.000000 0.0 0.0 0.0  10.000000 0.0 0.0 0.0  10.000000" energy=       -0.1229502953 Properties=species:S:1:pos:R:3:forces:R:3
He       0.000000       0.000000       0.000000      -0.401498       0.000000       0.000000
He       1.777133       0.000000       0.000000       0.401498       0.000000       0.000000
2
pbc="T T T" Lattice=" 10.000000 0.0 0.0 0.0  10.000000 0.0 0.0 0.0  10.000000" energy=       -0.0151472062 Properties=species:S:1:pos:R:3:forces:R:3
He       0.000000       0.000000       0.000000      -0.035767       0.000000       0.000000
He       2.531311       0.000000       0.000000       0.035767       0.000000       0.000000
2
pbc="T T T" Lattice=" 10.000000 0.0 0.0 0.0  10.000000 0.0 0.0 0.0  10.000000" energy=       -0.9689236155 Properties=species:S:1:pos:R:3:forces:R:3
He       0.000000       0.000000       0.000000      -1.503020       0.000000       0.000000
He       1.159335       0.000000       0.000000       1.503020       0.000000       0.000000
2
pbc="T T T" Lattice=" 10.000000 0.0 0.0 0.0  10.000000 0.0 0.0 0.0  10.000000" energy=       -0.0141526181 Properties=species:S:1:pos:R:3:forces:R:3
He       0.000000       0.000000       0.000000      -0.033049       0.000000       0.000000
He       2.560234       0.000000       0.000000       0.033049       0.000000       0.000000
2
pbc="T T T" Lattice=" 10.000000 0.0 0.0 0.0  10.000000 0.0 0.0 0.0  10.000000" energy=       -0.4698671878 Properties=species:S:1:pos:R:3:forces:R:3
He       0.000000       0.000000       0.000000      -1.703499       0.000000       0.000000
He       1.394561       0.000000       0.000000       1.703499       0.000000       0.000000
2
pbc="T T T" Lattice=" 10.000000 0.0 0.0 0.0  10.000000 0.0 0.0 0.0  10.000000" energy=       -0.2600165668 Properties=species:S:1:pos:R:3:forces:R:3
He       0.000000       0.000000       0.000000      -0.926039       0.000000       0.000000
He       1.558113       0.000000       0.000000       0.926039       0.000000       0.000000
2
pbc="T T T" Lattice=" 10.000000 0.0 0.0 0.0  10.000000 0.0 0.0 0.0  10.000000" energy=       -0.7279929375 Properties=species:S:1:pos:R:3:forces:R:3
He       0.000000       0.000000       0.000000       9.098391       0.000000       0.000000
He       1.046625       0.000000       0.000000      -9.098391       0.000000       0.000000
2
pbc="T T T" Lattice=" 10.000000 0.0 0.0 0.0  10.000000 0.0 0.0 0.0  10.000000" energy=       -0.9716854518 Properties=species:S:1:pos:R:3:forces:R:3
He       0.000000       0.000000       0.000000      -1.450978       0.000000       0.000000
He       1.157465       0.000000       0.000000       1.450978       0.000000       0.000000
2
pbc="T T T" Lattice=" 10.000000 0.0 0.0 0.0  10.000000 0.0 0.0 0.0  10.000000" energy=       -0.0429699228 Properties=species:S:1:pos:R:3:forces:R:3
He       0.000000       0.000000       0.000000      -0.119995       0.000000       0.000000
He       2.125000       0.000000       0.000000       0.119995       0.000000       0.000000
2
pbc="T T T" Lattice=" 10.000000 0.0 0.0 0.0  10.000000 0.0 0.0 0.0  10.000000" energy=       -0.0827100106 Properties=species:S:1:pos:R:3:forces:R:3
He       0.000000       0.000000       0.000000      -0.255288       0.000000       0.000000
He       1.901976       0.000000       0.000000       0.255288       0.000000       0.000000
2
pbc="T T T" Lattice=" 10.000000 0.0 0.0 0.0  10.000000 0.0 0.0 0.0  10.000000" energy=       -0.0425205064 Properties=species:S:1:pos:R:3:forces:R:3
He       0.000000       0.000000       0.000000      -0.118544       0.000000       0.000000
He       2.128768       0.000000       0.000000       0.118544       0.000000       0.000000
2
pbc="T T T" Lattice=" 10.000000 0.0 0.0 0.0  10.000000 0.0 0.0 0.0  10.000000" energy=       -0.0167440239 Properties=species:S:1:pos:R:3:forces:R:3
He       0.000000       0.000000       0.000000      -0.040189       0.000000       0.000000
He       2.489211       0.000000       0.000000       0.040189       0.000000       0.000000
2
pbc="T T T" Lattice=" 10.000000 0.0 0.0 0.0  10.000000 0.0 0.0 0.0  10.000000" energy=        1.5905180025 Properties=species:S:1:pos:R:3:forces:R:3
He       0.000000       0.000000       0.000000      52.685133       0.000000       0.000000
He       0.956633       0.000000       0.000000     -52.685133       0.000000       0.000000
2
pbc="T T T" Lattice=" 10.000000 0.0 0.0 0.0  10.000000 0.0 0.0 0.0  10.000000" energy=       -0.0256196181 Properties=species:S:1:pos:R:3:forces:R:3
He       0.000000       0.000000       0.000000      -0.065885       0.000000       0.000000
He       2.317998       0.000000       0.000000       0.065885       0.000000       0.000000
2
pbc="T T T" Lattice=" 10.000000 0.0 0.0 0.0  10.000000 0.0 0.0 0.0  10.000000" energy=       -0.0702337919 Properties=species:S:1:pos:R:3:forces:R:3
He       0.000000       0.000000       0.000000      -0.211563       0.000000       0.000000
He       1.955599       0.000000       0.000000       0.211563       0.000000       0.000000
2
pbc="T T T" Lattice=" 10.000000 0.0 0.0 0.0  10.000000 0.0 0.0 0.0  10.000000" energy=       -0.0211365102 Properties=species:S:1:pos:R:3:forces:R:3
He       0.000000       0.000000       0.000000      -0.052691       0.000000       0.000000
He       2.393971       0.000000       0.000000       0.052691       0.000000       0.000000
2
pbc="T T T" Lattice=" 10.000000 0.0 0.0 0.0  10.000000 0.0 0.0 0.0  10.000000" energy=       -0.1608673202 Properties=species:S:1:pos:R:3:forces:R:3
He       0.000000       0.000000       0.000000      -0.544083       0.000000       0.000000
He       1.696268       0.000000       0.000000       0.544083       0.000000       0.000000
2
pbc="T T T" Lattice=" 10.000000 0.0 0.0 0.0  10.000000 0.0 0.0 0.0  10.000000" energy=       -0.2583302934 Properties=species:S:1:pos:R:3:forces:R:3
He       0.000000       0.000000       0.000000      -0.919518       0.000000       0.000000
He       1.559941       0.000000       0.000000       0.919518       0.000000       0.000000
2
pbc="T T T" Lattice=" 10.000000 0.0 0.0 0.0  10.000000 0.0 0.0 0.0  10.000000" energy=       -0.0756515323 Properties=species:S:1:pos:R:3:forces:R:3
He       0.000000       0.000000       0.000000      -0.230434       0.000000       0.000000
He       1.931068       0.000000       0.000000       0.230434       0.000000       0.000000
2
pbc="T T T" Lattice=" 10.000000 0.0 0.0 0.0  10.000000 0.0 0.0 0.0  10.000000" energy=       -0.1404887444 Properties=species:S:1:pos:R:3:forces:R:3
He       0.000000       0.000000       0.000000      -0.467013       0.000000       0.000000
He       1.736662       0.000000       0.000000       0.467013       0.000000       0.000000
2
pbc="T T T" Lattice=" 10.000000 0.0 0.0 0.0  10.000000 0.0 0.0 0.0  10.000000" energy=       -0.2658291099 Properties=species:S:1:pos:R:3:forces:R:3
He       0.000000       0.000000       0.000000      18.857224       0.000000       0.000000
He       1.012456       0.000000       0.000000     -18.857224       0.000000       0.000000
2
pbc="T T T" Lattice=" 10.000000 0.0 0.0 0.0  10.000000 0.0 0.0 0.0  10.000000" energy=       -0.0565394867 Properties=species:S:1:pos:R:3:forces:R:3
He       0.000000       0.000000       0.000000      -0.164778       0.000000       0.000000
He       2.028800       0.000000       0.000000       0.164778       0.000000       0.000000
2
pbc="T T T" Lattice=" 10.000000 0.0 0.0 0.0  10.000000 0.0 0.0 0.0  10.000000" energy=       -0.8755061826 Properties=species:S:1:pos:R:3:forces:R:3
He       0.000000       0.000000       0.000000      -2.270385       0.000000       0.000000
He       1.206895       0.000000       0.000000       2.270385       0.000000       0.000000
2
pbc="T T T" Lattice=" 10.000000 0.0 0.0 0.0  10.000000 0.0 0.0 0.0  10.000000" energy=       -0.1580035095 Properties=species:S:1:pos:R:3:forces:R:3
He       0.000000       0.000000       0.000000      -0.533201       0.000000       0.000000
He       1.701585       0.000000       0.000000       0.533201       0.000000       0.000000
2
pbc="T T T" Lattice=" 10.000000 0.0 0.0 0.0  10.000000 0.0 0.0 0.0  10.000000" energy=       -0.7832531098 Properties=species:S:1:pos:R:3:forces:R:3
He       0.000000       0.000000       0.000000      -2.396260       0.000000       0.000000
He       1.246011       0.000000       0.000000       2.396260       0.000000       0.000000
2
pbc="T T T" Lattice=" 10.000000 0.0 0.0 0.0  10.000000 0.0 0.0 0.0  10.000000" energy=        0.1145605615 Properties=species:S:1:pos:R:3:forces:R:3
He       0.000000       0.000000       0.000000      26.163021       0.000000       0.000000
He       0.995430       0.000000       0.000000     -26.163021       0.000000       0.000000
2
pbc="T T T" Lattice=" 10.000000 0.0 0.0 0.0  10.000000 0.0 0.0 0.0  10.000000" energy=       -0.9868326822 Properties=species:S:1:pos:R:3:forces:R:3
He       0.000000       0.000000       0.000000      -1.064149       0.000000       0.000000
He       1.145497       0.000000       0.000000       1.064149       0.000000       0.000000
2
pbc="T T T" Lattice=" 10.000000 0.0 0.0 0.0  10.000000 0.0 0.0 0.0  10.000000" energy=       -0.0474236824 Properties=species:S:1:pos:R:3:forces:R:3
He       0.000000       0.000000       0.000000      -0.134494       0.000000       0.000000
He       2.089955       0.000000       0.000000       0.134494       0.000000       0.000000
2
pbc="T T T" Lattice=" 10.000000 0.0 0.0 0.0  10.000000 0.0 0.0 0.0  10.000000" energy=       -0.0324254223 Properties=species:S:1:pos:R:3:forces:R:3
He       0.000000       0.000000       0.000000      -0.086598       0.000000       0.000000
He       2.228102       0.000000       0.000000       0.086598       0.000000       0.000000
2