2
pbc="T T T" Lattice=" 10.000000 0.0 0.0 0.0  10.000000 0.0 0.0 0.0  10.000000" energy=               -0.1540136520 Properties=species:S:1:pos:R:3:forces:R:3
He      0.000000    0.000000    0.000000      0.089365    0.000000    0.000000
He      1.318675    0.000000    0.000000     -0.089365    0.000000    0.000000
2
pbc="T T T" Lattice=" 10.000000 0.0 0.0 0.0  10.000000 0.0 0.0 0.0  10.000000" energy=               -0.0696169681 Properties=species:S:1:pos:R:3:forces:R:3
He      0.000000    0.000000    0.000000      0.041555    0.000000    0.000000
He      1.538918    0.000000    0.000000     -0.041555    0.000000    0.000000
2
pbc="T T T" Lattice=" 10.000000 0.0 0.0 0.0  10.000000 0.0 0.0 0.0  10.000000" energy=               -0.0189521941 Properties=species:S:1:pos:R:3:forces:R:3
He      0.000000    0.000000    0.000000      0.009624    0.000000    0.000000
He      1.930386    0.000000    0.000000     -0.009624    0.000000    0.000000
2
pbc="T T T" Lattice=" 10.000000 0.0 0.0 0.0  10.000000 0.0 0.0 0.0  10.000000" energy=               -0.0122069042 Properties=species:S:1:pos:R:3:forces:R:3
He      0.000000    0.000000    0.000000      0.005796    0.000000    0.000000
He      2.079691    0.000000    0.000000     -0.005796    0.000000    0.000000
2
pbc="T T T" Lattice=" 10.000000 0.0 0.0 0.0  10.000000 0.0 0.0 0.0  10.000000" energy=               -0.0294276384 Properties=species:S:1:pos:R:3:forces:R:3
He      0.000000    0.000000    0.000000      0.015921    0.000000    0.000000
He      1.790510    0.000000    0.000000     -0.015921    0.000000    0.000000
2
pbc="T T T" Lattice=" 10.000000 0.0 0.0 0.0  10.000000 0.0 0.0 0.0  10.000000" energy=               -0.0596904688 Properties=species:S:1:pos:R:3:forces:R:3
He      0.000000    0.000000    0.000000      0.035158    0.000000    0.000000
He      1.582149    0.000000    0.000000     -0.035158    0.000000    0.000000
2
pbc="T T T" Lattice=" 10.000000 0.0 0.0 0.0  10.000000 0.0 0.0 0.0  10.000000" energy=               -0.2229888536 Properties=species:S:1:pos:R:3:forces:R:3
He      0.000000    0.000000    0.000000      0.091975    0.000000    0.000000
He      1.199552    0.000000    0.000000     -0.091975    0.000000    0.000000
2
pbc="T T T" Lattice=" 10.000000 0.0 0.0 0.0  10.000000 0.0 0.0 0.0  10.000000" energy=               -0.0544131428 Properties=species:S:1:pos:R:3:forces:R:3
He      0.000000    0.000000    0.000000      0.031756    0.000000    0.000000
He      1.608461    0.000000    0.000000     -0.031756    0.000000    0.000000
2
pbc="T T T" Lattice=" 10.000000 0.0 0.0 0.0  10.000000 0.0 0.0 0.0  10.000000" energy=               -0.1795897440 Properties=species:S:1:pos:R:3:forces:R:3
He      0.000000    0.000000    0.000000      0.097800    0.000000    0.000000
He      1.273297    0.000000    0.000000     -0.097800    0.000000    0.000000
2
pbc="T T T" Lattice=" 10.000000 0.0 0.0 0.0  10.000000 0.0 0.0 0.0  10.000000" energy=               -0.0195197361 Properties=species:S:1:pos:R:3:forces:R:3
He      0.000000    0.000000    0.000000      0.009956    0.000000    0.000000
He      1.920724    0.000000    0.000000     -0.009956    0.000000    0.000000
2
pbc="T T T" Lattice=" 10.000000 0.0 0.0 0.0  10.000000 0.0 0.0 0.0  10.000000" energy=               -0.0073421416 Properties=species:S:1:pos:R:3:forces:R:3
He      0.000000    0.000000    0.000000      0.003217    0.000000    0.000000
He      2.265473    0.000000    0.000000     -0.003217    0.000000    0.000000
2
pbc="T T T" Lattice=" 10.000000 0.0 0.0 0.0  10.000000 0.0 0.0 0.0  10.000000" energy=               -0.0087700866 Properties=species:S:1:pos:R:3:forces:R:3
He      0.000000    0.000000    0.000000      0.003953    0.000000    0.000000
He      2.198818    0.000000    0.000000     -0.003953    0.000000    0.000000
2
pbc="T T T" Lattice=" 10.000000 0.0 0.0 0.0  10.000000 0.0 0.0 0.0  10.000000" energy=               -0.0537254728 Properties=species:S:1:pos:R:3:forces:R:3
He      0.000000    0.000000    0.000000      0.031313    0.000000    0.000000
He      1.612096    0.000000    0.000000     -0.031313    0.000000    0.000000
2
pbc="T T T" Lattice=" 10.000000 0.0 0.0 0.0  10.000000 0.0 0.0 0.0  10.000000" energy=               -0.0121892540 Properties=species:S:1:pos:R:3:forces:R:3
He      0.000000    0.000000    0.000000      0.005786    0.000000    0.000000
He      2.080199    0.000000    0.000000     -0.005786    0.000000    0.000000
2
pbc="T T T" Lattice=" 10.000000 0.0 0.0 0.0  10.000000 0.0 0.0 0.0  10.000000" energy=               -0.0135211397 Properties=species:S:1:pos:R:3:forces:R:3
He      0.000000    0.000000    0.000000      0.006523    0.000000    0.000000
He      2.044083    0.000000    0.000000     -0.006523    0.000000    0.000000
2
pbc="T T T" Lattice=" 10.000000 0.0 0.0 0.0  10.000000 0.0 0.0 0.0  10.000000" energy=               -0.1355333735 Properties=species:S:1:pos:R:3:forces:R:3
He      0.000000    0.000000    0.000000      0.080743    0.000000    0.000000
He      1.354861    0.000000    0.000000     -0.080743    0.000000    0.000000
2
pbc="T T T" Lattice=" 10.000000 0.0 0.0 0.0  10.000000 0.0 0.0 0.0  10.000000" energy=               -0.1411840935 Properties=species:S:1:pos:R:3:forces:R:3
He      0.000000    0.000000    0.000000     -0.530749    0.000000    0.000000
He      1.031569    0.000000    0.000000      0.530749    0.000000    0.000000
2
pbc="T T T" Lattice=" 10.000000 0.0 0.0 0.0  10.000000 0.0 0.0 0.0  10.000000" energy=               -0.1426533249 Properties=species:S:1:pos:R:3:forces:R:3
He      0.000000    0.000000    0.000000      0.084257    0.000000    0.000000
He      1.340478    0.000000    0.000000     -0.084257    0.000000    0.000000
2
pbc="T T T" Lattice=" 10.000000 0.0 0.0 0.0  10.000000 0.0 0.0 0.0  10.000000" energy=               -0.0086410042 Properties=species:S:1:pos:R:3:forces:R:3
He      0.000000    0.000000    0.000000      0.003886    0.000000    0.000000
He      2.204308    0.000000    0.000000     -0.003886    0.000000    0.000000
2
pbc="T T T" Lattice=" 10.000000 0.0 0.0 0.0  10.000000 0.0 0.0 0.0  10.000000" energy=               -0.1965574459 Properties=species:S:1:pos:R:3:forces:R:3
He      0.000000    0.000000    0.000000      0.099851    0.000000    0.000000
He      1.244769    0.000000    0.000000     -0.099851    0.000000    0.000000
2
pbc="T T T" Lattice=" 10.000000 0.0 0.0 0.0  10.000000 0.0 0.0 0.0  10.000000" energy=               -0.0198302676 Properties=species:S:1:pos:R:3:forces:R:3
He      0.000000    0.000000    0.000000      0.010138    0.000000    0.000000
He      1.915572    0.000000    0.000000     -0.010138    0.000000    0.000000
2
pbc="T T T" Lattice=" 10.000000 0.0 0.0 0.0  10.000000 0.0 0.0 0.0  10.000000" energy=               -0.0061551155 Properties=species:S:1:pos:R:3:forces:R:3
He      0.000000    0.000000    0.000000      0.002621    0.000000    0.000000
He      2.333517    0.000000    0.000000     -0.002621    0.000000    0.000000
2
pbc="T T T" Lattice=" 10.000000 0.0 0.0 0.0  10.000000 0.0 0.0 0.0  10.000000" energy=               -0.0056942985 Properties=species:S:1:pos:R:3:forces:R:3
He      0.000000    0.000000    0.000000      0.002395    0.000000    0.000000
He      2.364164    0.000000    0.000000     -0.002395    0.000000    0.000000
2
pbc="T T T" Lattice=" 10.000000 0.0 0.0 0.0  10.000000 0.0 0.0 0.0  10.000000" energy=               -0.0271616844 Properties=species:S:1:pos:R:3:forces:R:3
He      0.000000    0.000000    0.000000      0.014532    0.000000    0.000000
He      1.815331    0.000000    0.000000     -0.014532    0.000000    0.000000
2
pbc="T T T" Lattice=" 10.000000 0.0 0.0 0.0  10.000000 0.0 0.0 0.0  10.000000" energy=               -0.0360625484 Properties=species:S:1:pos:R:3:forces:R:3
He      0.000000    0.000000    0.000000      0.020049    0.000000    0.000000
He      1.728728    0.000000    0.000000     -0.020049    0.000000    0.000000
2
pbc="T T T" Lattice=" 10.000000 0.0 0.0 0.0  10.000000 0.0 0.0 0.0  10.000000" energy=               -0.0080093259 Properties=species:S:1:pos:R:3:forces:R:3
He      0.000000    0.000000    0.000000      0.003558    0.000000    0.000000
He      2.232615    0.000000    0.000000     -0.003558    0.000000    0.000000
2
pbc="T T T" Lattice=" 10.000000 0.0 0.0 0.0  10.000000 0.0 0.0 0.0  10.000000" energy=               -0.0052225771 Properties=species:S:1:pos:R:3:forces:R:3
He      0.000000    0.000000    0.000000      0.002166    0.000000    0.000000
He      2.398676    0.000000    0.000000     -0.002166    0.000000    0.000000
2
pbc="T T T" Lattice=" 10.000000 0.0 0.0 0.0  10.000000 0.0 0.0 0.0  10.000000" energy=               -0.0053888330 Properties=species:S:1:pos:R:3:forces:R:3
He      0.000000    0.000000    0.000000      0.002246    0.000000    0.000000
He      2.386113    0.000000    0.000000     -0.002246    0.000000    0.000000
2
pbc="T T T" Lattice=" 10.000000 0.0 0.0 0.0  10.000000 0.0 0.0 0.0  10.000000" energy=               -0.0602820894 Properties=species:S:1:pos:R:3:forces:R:3
He      0.000000    0.000000    0.000000      0.035540    0.000000    0.000000
He      1.579360    0.000000    0.000000     -0.035540    0.000000    0.000000
2
pbc="T T T" Lattice=" 10.000000 0.0 0.0 0.0  10.000000 0.0 0.0 0.0  10.000000" energy=                0.1064230434 Properties=species:S:1:pos:R:3:forces:R:3
He      0.000000    0.000000    0.000000     -1.330228    0.000000    0.000000
He      0.984687    0.000000    0.000000      1.330228    0.000000    0.000000
2
pbc="T T T" Lattice=" 10.000000 0.0 0.0 0.0  10.000000 0.0 0.0 0.0  10.000000" energy=               -0.0054588146 Properties=species:S:1:pos:R:3:forces:R:3
He      0.000000    0.000000    0.000000      0.002280    0.000000    0.000000
He      2.380959    0.000000    0.000000     -0.002280    0.000000    0.000000
2
pbc="T T T" Lattice=" 10.000000 0.0 0.0 0.0  10.000000 0.0 0.0 0.0  10.000000" energy=               -0.0716222075 Properties=species:S:1:pos:R:3:forces:R:3
He      0.000000    0.000000    0.000000      0.042843    0.000000    0.000000
He      1.530998    0.000000    0.000000     -0.042843    0.000000    0.000000
2
pbc="T T T" Lattice=" 10.000000 0.0 0.0 0.0  10.000000 0.0 0.0 0.0  10.000000" energy=               -0.2094952774 Properties=species:S:1:pos:R:3:forces:R:3
He      0.000000    0.000000    0.000000     -0.266056    0.000000    0.000000
He      1.060931    0.000000    0.000000      0.266056    0.000000    0.000000
2
pbc="T T T" Lattice=" 10.000000 0.0 0.0 0.0  10.000000 0.0 0.0 0.0  10.000000" energy=               -0.2475283758 Properties=species:S:1:pos:R:3:forces:R:3
He      0.000000    0.000000    0.000000      0.039197    0.000000    0.000000
He      1.142226    0.000000    0.000000     -0.039197    0.000000    0.000000
2
pbc="T T T" Lattice=" 10.000000 0.0 0.0 0.0  10.000000 0.0 0.0 0.0  10.000000" energy=               -0.0911050559 Properties=species:S:1:pos:R:3:forces:R:3
He      0.000000    0.000000    0.000000      0.055193    0.000000    0.000000
He      1.464441    0.000000    0.000000     -0.055193    0.000000    0.000000
2
pbc="T T T" Lattice=" 10.000000 0.0 0.0 0.0  10.000000 0.0 0.0 0.0  10.000000" energy=               -0.0714595362 Properties=species:S:1:pos:R:3:forces:R:3
He      0.000000    0.000000    0.000000     -0.769215    0.000000    0.000000
He      1.013528    0.000000    0.000000      0.769215    0.000000    0.000000
2
pbc="T T T" Lattice=" 10.000000 0.0 0.0 0.0  10.000000 0.0 0.0 0.0  10.000000" energy=               -0.0637925367 Properties=species:S:1:pos:R:3:forces:R:3
He      0.000000    0.000000    0.000000      0.037804    0.000000    0.000000
He      1.563400    0.000000    0.000000     -0.037804    0.000000    0.000000
2
pbc="T T T" Lattice=" 10.000000 0.0 0.0 0.0  10.000000 0.0 0.0 0.0  10.000000" energy=               -0.0161019835 Properties=species:S:1:pos:R:3:forces:R:3
He      0.000000    0.000000    0.000000      0.007979    0.000000    0.000000
He      1.984535    0.000000    0.000000     -0.007979    0.000000    0.000000
2
pbc="T T T" Lattice=" 10.000000 0.0 0.0 0.0  10.000000 0.0 0.0 0.0  10.000000" energy=               -0.2429500546 Properties=species:S:1:pos:R:3:forces:R:3
He      0.000000    0.000000    0.000000     -0.089655    0.000000    0.000000
He      1.093794    0.000000    0.000000      0.089655    0.000000    0.000000
2
pbc="T T T" Lattice=" 10.000000 0.0 0.0 0.0  10.000000 0.0 0.0 0.0  10.000000" energy=               -0.1739933378 Properties=species:S:1:pos:R:3:forces:R:3
He      0.000000    0.000000    0.000000      0.096406    0.000000    0.000000
He      1.282900    0.000000    0.000000     -0.096406    0.000000    0.000000
2
pbc="T T T" Lattice=" 10.000000 0.0 0.0 0.0  10.000000 0.0 0.0 0.0  10.000000" energy=               -0.2203318604 Properties=species:S:1:pos:R:3:forces:R:3
He      0.000000    0.000000    0.000000      0.093753    0.000000    0.000000
He      1.204319    0.000000    0.000000     -0.093753    0.000000    0.000000
2
pbc="T T T" Lattice=" 10.000000 0.0 0.0 0.0  10.000000 0.0 0.0 0.0  10.000000" energy=               -0.1140011275 Properties=species:S:1:pos:R:3:forces:R:3
He      0.000000    0.000000    0.000000      0.068992    0.000000    0.000000
He      1.402814    0.000000    0.000000     -0.068992    0.000000    0.000000
2
pbc="T T T" Lattice=" 10.000000 0.0 0.0 0.0  10.000000 0.0 0.0 0.0  10.000000" energy=               -0.0089373706 Properties=species:S:1:pos:R:3:forces:R:3
He      0.000000    0.000000    0.000000      0.004040    0.000000    0.000000
He      2.191842    0.000000    0.000000     -0.004040    0.000000    0.000000
2
pbc="T T T" Lattice=" 10.000000 0.0 0.0 0.0  10.000000 0.0 0.0 0.0  10.000000" energy=               -0.2005295780 Properties=species:S:1:pos:R:3:forces:R:3
He      0.000000    0.000000    0.000000      0.099729    0.000000    0.000000
He      1.238136    0.000000    0.000000     -0.099729    0.000000    0.000000
2
pbc="T T T" Lattice=" 10.000000 0.0 0.0 0.0  10.000000 0.0 0.0 0.0  10.000000" energy=               -0.2485997414 Properties=species:S:1:pos:R:3:forces:R:3
He      0.000000    0.000000    0.000000     -0.036266    0.000000    0.000000
He      1.109041    0.000000    0.000000      0.036266    0.000000    0.000000
2
pbc="T T T" Lattice=" 10.000000 0.0 0.0 0.0  10.000000 0.0 0.0 0.0  10.000000" energy=               -0.0723353081 Properties=species:S:1:pos:R:3:forces:R:3
He      0.000000    0.000000    0.000000      0.043301    0.000000    0.000000
He      1.528238    0.000000    0.000000     -0.043301    0.000000    0.000000
2
pbc="T T T" Lattice=" 10.000000 0.0 0.0 0.0  10.000000 0.0 0.0 0.0  10.000000" energy=               -0.1019411237 Properties=species:S:1:pos:R:3:forces:R:3
He      0.000000    0.000000    0.000000      0.061851    0.000000    0.000000
He      1.433556    0.000000    0.000000     -0.061851    0.000000    0.000000
2
pbc="T T T" Lattice=" 10.000000 0.0 0.0 0.0  10.000000 0.0 0.0 0.0  10.000000" energy=               -0.1931403002 Properties=species:S:1:pos:R:3:forces:R:3
He      0.000000    0.000000    0.000000      0.099749    0.000000    0.000000
He      1.250475    0.000000    0.000000     -0.099749    0.000000    0.000000
2
pbc="T T T" Lattice=" 10.000000 0.0 0.0 0.0  10.000000 0.0 0.0 0.0  10.000000" energy=               -0.1362599600 Properties=species:S:1:pos:R:3:forces:R:3
He      0.000000    0.000000    0.000000     -0.548260    0.000000    0.000000
He      1.030047    0.000000    0.000000      0.548260    0.000000    0.000000
2
pbc="T T T" Lattice=" 10.000000 0.0 0.0 0.0  10.000000 0.0 0.0 0.0  10.000000" energy=               -0.0263303592 Properties=species:S:1:pos:R:3:forces:R:3
He      0.000000    0.000000    0.000000      0.014026    0.000000    0.000000
He      1.825036    0.000000    0.000000     -0.014026    0.000000    0.000000
2
pbc="T T T" Lattice=" 10.000000 0.0 0.0 0.0  10.000000 0.0 0.0 0.0  10.000000" energy=               -0.0393622154 Properties=species:S:1:pos:R:3:forces:R:3
He      0.000000    0.000000    0.000000      0.022129    0.000000    0.000000
He      1.702627    0.000000    0.000000     -0.022129    0.000000    0.000000
2
pbc="T T T" Lattice=" 10.000000 0.0 0.0 0.0  10.000000 0.0 0.0 0.0  10.000000" energy=               -0.0109953993 Properties=species:S:1:pos:R:3:forces:R:3
He      0.000000    0.000000    0.000000      0.005136    0.000000    0.000000
He      2.116681    0.000000    0.000000     -0.005136    0.000000    0.000000
2
pbc="T T T" Lattice=" 10.000000 0.0 0.0 0.0  10.000000 0.0 0.0 0.0  10.000000" energy=               -0.1156676734 Properties=species:S:1:pos:R:3:forces:R:3
He      0.000000    0.000000    0.000000      0.069951    0.000000    0.000000
He      1.398816    0.000000    0.000000     -0.069951    0.000000    0.000000
2
pbc="T T T" Lattice=" 10.000000 0.0 0.0 0.0  10.000000 0.0 0.0 0.0  10.000000" energy=               -0.1362597625 Properties=species:S:1:pos:R:3:forces:R:3
He      0.000000    0.000000    0.000000      0.081112    0.000000    0.000000
He      1.353365    0.000000    0.000000     -0.081112    0.000000    0.000000
2
pbc="T T T" Lattice=" 10.000000 0.0 0.0 0.0  10.000000 0.0 0.0 0.0  10.000000" energy=               -0.0108583043 Properties=species:S:1:pos:R:3:forces:R:3
He      0.000000    0.000000    0.000000      0.005062    0.000000    0.000000
He      2.121162    0.000000    0.000000     -0.005062    0.000000    0.000000
2
pbc="T T T" Lattice=" 10.000000 0.0 0.0 0.0  10.000000 0.0 0.0 0.0  10.000000" energy=               -0.0112699084 Properties=species:S:1:pos:R:3:forces:R:3
He      0.000000    0.000000    0.000000      0.005285    0.000000    0.000000
He      2.107900    0.000000    0.000000     -0.005285    0.000000    0.000000
2
pbc="T T T" Lattice=" 10.000000 0.0 0.0 0.0  10.000000 0.0 0.0 0.0  10.000000" energy=               -0.0210680324 Properties=species:S:1:pos:R:3:forces:R:3
He      0.000000    0.000000    0.000000      0.010868    0.000000    0.000000
He      1.895922    0.000000    0.000000     -0.010868    0.000000    0.000000
2
pbc="T T T" Lattice=" 10.000000 0.0 0.0 0.0  10.000000 0.0 0.0 0.0  10.000000" energy=                0.3907432254 Properties=species:S:1:pos:R:3:forces:R:3
He      0.000000    0.000000    0.000000     -2.175138    0.000000    0.000000
He      0.957158    0.000000    0.000000      2.175138    0.000000    0.000000
2
pbc="T T T" Lattice=" 10.000000 0.0 0.0 0.0  10.000000 0.0 0.0 0.0  10.000000" energy=               -0.0084067504 Properties=species:S:1:pos:R:3:forces:R:3
He      0.000000    0.000000    0.000000      0.003764    0.000000    0.000000
He      2.214517    0.000000    0.000000     -0.003764    0.000000    0.000000
2
pbc="T T T" Lattice=" 10.000000 0.0 0.0 0.0  10.000000 0.0 0.0 0.0  10.000000" energy=               -0.0168559803 Properties=species:S:1:pos:R:3:forces:R:3
He      0.000000    0.000000    0.000000      0.008410    0.000000    0.000000
He      1.969196    0.000000    0.000000     -0.008410    0.000000    0.000000
2
pbc="T T T" Lattice=" 10.000000 0.0 0.0 0.0  10.000000 0.0 0.0 0.0  10.000000" energy=               -0.0334465939 Properties=species:S:1:pos:R:3:forces:R:3
He      0.000000    0.000000    0.000000      0.018412    0.000000    0.000000
He      1.751415    0.000000    0.000000     -0.018412    0.000000    0.000000
2
pbc="T T T" Lattice=" 10.000000 0.0 0.0 0.0  10.000000 0.0 0.0 0.0  10.000000" energy=               -0.2476988278 Properties=species:S:1:pos:R:3:forces:R:3
He      0.000000    0.000000    0.000000      0.037993    0.000000    0.000000
He      1.141490    0.000000    0.000000     -0.037993    0.000000    0.000000
2
pbc="T T T" Lattice=" 10.000000 0.0 0.0 0.0  10.000000 0.0 0.0 0.0  10.000000" energy=               -0.0280199597 Properties=species:S:1:pos:R:3:forces:R:3
He      0.000000    0.000000    0.000000      0.015057    0.000000    0.000000
He      1.805661    0.000000    0.000000     -0.015057    0.000000    0.000000
2
pbc="T T T" Lattice=" 10.000000 0.0 0.0 0.0  10.000000 0.0 0.0 0.0  10.000000" energy=               -0.0043241701 Properties=species:S:1:pos:R:3:forces:R:3
He      0.000000    0.000000    0.000000      0.001739    0.000000    0.000000
He      2.475718    0.000000    0.000000     -0.001739    0.000000    0.000000
2
pbc="T T T" Lattice=" 10.000000 0.0 0.0 0.0  10.000000 0.0 0.0 0.0  10.000000" energy=               -0.0417709248 Properties=species:S:1:pos:R:3:forces:R:3
He      0.000000    0.000000    0.000000      0.023656    0.000000    0.000000
He      1.685084    0.000000    0.000000     -0.023656    0.000000    0.000000
2
pbc="T T T" Lattice=" 10.000000 0.0 0.0 0.0  10.000000 0.0 0.0 0.0  10.000000" energy=               -0.0160834738 Properties=species:S:1:pos:R:3:forces:R:3
He      0.000000    0.000000    0.000000      0.007968    0.000000    0.000000
He      1.984922    0.000000    0.000000     -0.007968    0.000000    0.000000
2
pbc="T T T" Lattice=" 10.000000 0.0 0.0 0.0  10.000000 0.0 0.0 0.0  10.000000" energy=               -0.0097850267 Properties=species:S:1:pos:R:3:forces:R:3
He      0.000000    0.000000    0.000000      0.004488    0.000000    0.000000
He      2.158676    0.000000    0.000000     -0.004488    0.000000    0.000000
2
pbc="T T T" Lattice=" 10.000000 0.0 0.0 0.0  10.000000 0.0 0.0 0.0  10.000000" energy=               -0.1130358528 Properties=species:S:1:pos:R:3:forces:R:3
He      0.000000    0.000000    0.000000      0.068433    0.000000    0.000000
He      1.405155    0.000000    0.000000     -0.068433    0.000000    0.000000
2
pbc="T T T" Lattice=" 10.000000 0.0 0.0 0.0  10.000000 0.0 0.0 0.0  10.000000" energy=               -0.0587584660 Properties=species:S:1:pos:R:3:forces:R:3
He      0.000000    0.000000    0.000000      0.034557    0.000000    0.000000
He      1.586605    0.000000    0.000000     -0.034557    0.000000    0.000000
2
pbc="T T T" Lattice=" 10.000000 0.0 0.0 0.0  10.000000 0.0 0.0 0.0  10.000000" energy=               -0.0348584708 Properties=species:S:1:pos:R:3:forces:R:3
He      0.000000    0.000000    0.000000      0.019294    0.000000    0.000000
He      1.738931    0.000000    0.000000     -0.019294    0.000000    0.000000
2
pbc="T T T" Lattice=" 10.000000 0.0 0.0 0.0  10.000000 0.0 0.0 0.0  10.000000" energy=               -0.0094123327 Properties=species:S:1:pos:R:3:forces:R:3
He      0.000000    0.000000    0.000000      0.004290    0.000000    0.000000
He      2.172831    0.000000    0.000000     -0.004290    0.000000    0.000000
2
pbc="T T T" Lattice=" 10.000000 0.0 0.0 0.0  10.000000 0.0 0.0 0.0  10.000000" energy=               -0.0304192880 Properties=species:S:1:pos:R:3:forces:R:3
He      0.000000    0.000000    0.000000      0.016532    0.000000    0.000000
He      1.780323    0.000000    0.000000     -0.016532    0.000000    0.000000
2
pbc="T T T" Lattice=" 10.000000 0.0 0.0 0.0  10.000000 0.0 0.0 0.0  10.000000" energy=               -0.0632088468 Properties=species:S:1:pos:R:3:forces:R:3
He      0.000000    0.000000    0.000000      0.037428    0.000000    0.000000
He      1.565987    0.000000    0.000000     -0.037428    0.000000    0.000000
2
pbc="T T T" Lattice=" 10.000000 0.0 0.0 0.0  10.000000 0.0 0.0 0.0  10.000000" energy=               -0.0059795736 Properties=species:S:1:pos:R:3:forces:R:3
He      0.000000    0.000000    0.000000      0.002535    0.000000    0.000000
He      2.344867    0.000000    0.000000     -0.002535    0.000000    0.000000
2
pbc="T T T" Lattice=" 10.000000 0.0 0.0 0.0  10.000000 0.0 0.0 0.0  10.000000" energy=               -0.1993039394 Properties=species:S:1:pos:R:3:forces:R:3
He      0.000000    0.000000    0.000000     -0.309520    0.000000    0.000000
He      1.055021    0.000000    0.000000      0.309520    0.000000    0.000000
2
pbc="T T T" Lattice=" 10.000000 0.0 0.0 0.0  10.000000 0.0 0.0 0.0  10.000000" energy=               -0.0062878456 Properties=species:S:1:pos:R:3:forces:R:3
He      0.000000    0.000000    0.000000      0.002687    0.000000    0.000000
He      2.325182    0.000000    0.000000     -0.002687    0.000000    0.000000
2
pbc="T T T" Lattice=" 10.000000 0.0 0.0 0.0  10.000000 0.0 0.0 0.0  10.000000" energy=               -0.0440187354 Properties=species:S:1:pos:R:3:forces:R:3
He      0.000000    0.000000    0.000000      0.025088    0.000000    0.000000
He      1.669708    0.000000    0.000000     -0.025088    0.000000    0.000000
2
pbc="T T T" Lattice=" 10.000000 0.0 0.0 0.0  10.000000 0.0 0.0 0.0  10.000000" energy=               -0.0236408858 Properties=species:S:1:pos:R:3:forces:R:3
He      0.000000    0.000000    0.000000      0.012401    0.000000    0.000000
He      1.859006    0.000000    0.000000     -0.012401    0.000000    0.000000
2
pbc="T T T" Lattice=" 10.000000 0.0 0.0 0.0  10.000000 0.0 0.0 0.0  10.000000" energy=               -0.0111656075 Properties=species:S:1:pos:R:3:forces:R:3
He      0.000000    0.000000    0.000000      0.005228    0.000000    0.000000
He      2.111207    0.000000    0.000000     -0.005228    0.000000    0.000000
2
pbc="T T T" Lattice=" 10.000000 0.0 0.0 0.0  10.000000 0.0 0.0 0.0  10.000000" energy=               -0.0085285005 Properties=species:S:1:pos:R:3:forces:R:3
He      0.000000    0.000000    0.000000      0.003827    0.000000    0.000000
He      2.209170    0.000000    0.000000     -0.003827    0.000000    0.000000
2
pbc="T T T" Lattice=" 10.000000 0.0 0.0 0.0  10.000000 0.0 0.0 0.0  10.000000" energy=               -0.0966695128 Properties=species:S:1:pos:R:3:forces:R:3
He      0.000000    0.000000    0.000000      0.058636    0.000000    0.000000
He      1.448143    0.000000    0.000000     -0.058636    0.000000    0.000000
2
pbc="T T T" Lattice=" 10.000000 0.0 0.0 0.0  10.000000 0.0 0.0 0.0  10.000000" energy=               -0.1335931219 Properties=species:S:1:pos:R:3:forces:R:3
He      0.000000    0.000000    0.000000      0.079749    0.000000    0.000000
He      1.358891    0.000000    0.000000     -0.079749    0.000000    0.000000
2
pbc="T T T" Lattice=" 10.000000 0.0 0.0 0.0  10.000000 0.0 0.0 0.0  10.000000" energy=               -0.0060407095 Properties=species:S:1:pos:R:3:forces:R:3
He      0.000000    0.000000    0.000000      0.002565    0.000000    0.000000
He      2.340871    0.000000    0.000000     -0.002565    0.000000    0.000000
2
pbc="T T T" Lattice=" 10.000000 0.0 0.0 0.0  10.000000 0.0 0.0 0.0  10.000000" energy=                0.1490720876 Properties=species:S:1:pos:R:3:forces:R:3
He      0.000000    0.000000    0.000000     -1.459660    0.000000    0.000000
He      0.979588    0.000000    0.000000      1.459660    0.000000    0.000000
2
pbc="T T T" Lattice=" 10.000000 0.0 0.0 0.0  10.000000 0.0 0.0 0.0  10.000000" energy=               -0.1377686529 Properties=species:S:1:pos:R:3:forces:R:3
He      0.000000    0.000000    0.000000     -0.542909    0.000000    0.000000
He      1.030508    0.000000    0.000000      0.542909    0.000000    0.000000
2
pbc="T T T" Lattice=" 10.000000 0.0 0.0 0.0  10.000000 0.0 0.0 0.0  10.000000" energy=                0.1896418263 Properties=species:S:1:pos:R:3:forces:R:3
He      0.000000    0.000000    0.000000     -1.581660    0.000000    0.000000
He      0.975139    0.000000    0.000000      1.581660    0.000000    0.000000
2
pbc="T T T" Lattice=" 10.000000 0.0 0.0 0.0  10.000000 0.0 0.0 0.0  10.000000" energy=               -0.0993562034 Properties=species:S:1:pos:R:3:forces:R:3
He      0.000000    0.000000    0.000000      0.060281    0.000000    0.000000
He      1.440611    0.000000    0.000000     -0.060281    0.000000    0.000000
2
pbc="T T T" Lattice=" 10.000000 0.0 0.0 0.0  10.000000 0.0 0.0 0.0  10.000000" energy=               -0.0145451202 Properties=species:S:1:pos:R:3:forces:R:3
He      0.000000    0.000000    0.000000      0.007096    0.000000    0.000000
He      2.019004    0.000000    0.000000     -0.007096    0.000000    0.000000
2
pbc="T T T" Lattice=" 10.000000 0.0 0.0 0.0  10.000000 0.0 0.0 0.0  10.000000" energy=               -0.0045485490 Properties=species:S:1:pos:R:3:forces:R:3
He      0.000000    0.000000    0.000000      0.001844    0.000000    0.000000
He      2.454839    0.000000    0.000000     -0.001844    0.000000    0.000000
2
pbc="T T T" Lattice=" 10.000000 0.0 0.0 0.0  10.000000 0.0 0.0 0.0  10.000000" energy=               -0.0256355661 Properties=species:S:1:pos:R:3:forces:R:3
He      0.000000    0.000000    0.000000      0.013604    0.000000    0.000000
He      1.833418    0.000000    0.000000     -0.013604    0.000000    0.000000
2
pbc="T T T" Lattice=" 10.000000 0.0 0.0 0.0  10.000000 0.0 0.0 0.0  10.000000" energy=               -0.2495307483 Properties=species:S:1:pos:R:3:forces:R:3
He      0.000000    0.000000    0.000000      0.018327    0.000000    0.000000
He      1.130779    0.000000    0.000000     -0.018327    0.000000    0.000000
2
pbc="T T T" Lattice=" 10.000000 0.0 0.0 0.0  10.000000 0.0 0.0 0.0  10.000000" energy=               -0.0924198506 Properties=species:S:1:pos:R:3:forces:R:3
He      0.000000    0.000000    0.000000      0.056011    0.000000    0.000000
He      1.460500    0.000000    0.000000     -0.056011    0.000000    0.000000
2
pbc="T T T" Lattice=" 10.000000 0.0 0.0 0.0  10.000000 0.0 0.0 0.0  10.000000" energy=               -0.0115258245 Properties=species:S:1:pos:R:3:forces:R:3
He      0.000000    0.000000    0.000000      0.005424    0.000000    0.000000
He      2.099934    0.000000    0.000000     -0.005424    0.000000    0.000000
2
pbc="T T T" Lattice=" 10.000000 0.0 0.0 0.0  10.000000 0.0 0.0 0.0  10.000000" energy=               -0.0075310988 Properties=species:S:1:pos:R:3:forces:R:3
He      0.000000    0.000000    0.000000      0.003313    0.000000    0.000000
He      2.255826    0.000000    0.000000     -0.003313    0.000000    0.000000
2
pbc="T T T" Lattice=" 10.000000 0.0 0.0 0.0  10.000000 0.0 0.0 0.0  10.000000" energy=                0.0420879422 Properties=species:S:1:pos:R:3:forces:R:3